# vtk DataFile Version 2.0
Difusion de calor 2D - Tiempo: 1.220000 s
ASCII
DATASET STRUCTURED_POINTS
DIMENSIONS 10 10 1
ORIGIN 0.0 0.0 0.0
SPACING 0.100000 0.100000 1.0
POINT_DATA 100
SCALARS temperatura float 1
LOOKUP_TABLE default
1.00000000e+02
1.00000000e+02
1.00000000e+02
1.00000000e+02
1.00000000e+02
1.00000000e+02
1.00000000e+02
1.00000000e+02
1.00000000e+02
1.00000000e+02
0.00000000e+00
4.83791200e+01
6.64439482e+01
7.38426250e+01
7.66264765e+01
7.66264765e+01
7.38426250e+01
6.64439482e+01
4.83791200e+01
0.00000000e+00
0.00000000e+00
2.71346141e+01
4.36707234e+01
5.24572705e+01
5.62155594e+01
5.62155594e+01
5.24572705e+01
4.36707234e+01
2.71346141e+01
0.00000000e+00
0.00000000e+00
1.66042352e+01
2.88643581e+01
3.63929356e+01
3.98958448e+01
3.98958448e+01
3.63929356e+01
2.88643581e+01
1.66042352e+01
0.00000000e+00
0.00000000e+00
1.05715742e+01
1.90782195e+01
2.47432047e+01
2.75213185e+01
2.75213185e+01
2.47432047e+01
1.90782195e+01
1.05715742e+01
0.00000000e+00
0.00000000e+00
6.77549290e+00
1.24563366e+01
1.64149730e+01
1.84191436e+01
1.84191436e+01
1.64149730e+01
1.24563366e+01
6.77549290e+00
0.00000000e+00
0.00000000e+00
4.24250367e+00
7.87322730e+00
1.04677122e+01
1.18061401e+01
1.18061401e+01
1.04677122e+01
7.87322730e+00
4.24250367e+00
0.00000000e+00
0.00000000e+00
2.46677704e+00
4.59977243e+00
6.14487677e+00
6.95045528e+00
6.95045528e+00
6.14487677e+00
4.59977243e+00
2.46677704e+00
0.00000000e+00
0.00000000e+00
1.13121749e+00
2.11414624e+00
2.83094001e+00
3.20666662e+00
3.20666662e+00
2.83094001e+00
2.11414624e+00
1.13121749e+00
0.00000000e+00
0.00000000e+00
0.00000000e+00
0.00000000e+00
0.00000000e+00
0.00000000e+00
0.00000000e+00
0.00000000e+00
0.00000000e+00
0.00000000e+00
0.00000000e+00
