# vtk DataFile Version 2.0
Difusion de calor 2D - Tiempo: 0.120000 s
ASCII
DATASET STRUCTURED_POINTS
DIMENSIONS 10 10 1
ORIGIN 0.0 0.0 0.0
SPACING 0.100000 0.100000 1.0
POINT_DATA 100
SCALARS temperatura float 1
LOOKUP_TABLE default
1.00000000e+02
1.00000000e+02
1.00000000e+02
1.00000000e+02
1.00000000e+02
1.00000000e+02
1.00000000e+02
1.00000000e+02
1.00000000e+02
1.00000000e+02
0.00000000e+00
3.82291070e+01
4.83746796e+01
5.08310449e+01
5.13446593e+01
5.13446593e+01
5.08310449e+01
4.83746796e+01
3.82291070e+01
0.00000000e+00
0.00000000e+00
1.29854587e+01
1.82836912e+01
1.98699066e+01
2.02421966e+01
2.02421966e+01
1.98699066e+01
1.82836912e+01
1.29854587e+01
0.00000000e+00
0.00000000e+00
3.73988050e+00
5.55146569e+00
6.16016229e+00
6.31390345e+00
6.31390345e+00
6.16016229e+00
5.55146569e+00
3.73988050e+00
0.00000000e+00
0.00000000e+00
9.09811038e-01
1.39015650e+00
1.56322918e+00
1.60914014e+00
1.60914014e+00
1.56322918e+00
1.39015650e+00
9.09811038e-01
0.00000000e+00
0.00000000e+00
1.89155647e-01
2.94110625e-01
3.33689356e-01
3.44552797e-01
3.44552797e-01
3.33689356e-01
2.94110625e-01
1.89155647e-01
0.00000000e+00
0.00000000e+00
3.41174420e-02
5.36514674e-02
6.12507081e-02
6.33865547e-02
6.33865547e-02
6.12507081e-02
5.36514674e-02
3.41174420e-02
0.00000000e+00
0.00000000e+00
5.41065622e-03
8.57395557e-03
9.83099105e-03
1.01900633e-02
1.01900633e-02
9.83099105e-03
8.57395557e-03
5.41065622e-03
0.00000000e+00
0.00000000e+00
7.52327403e-04
1.19824687e-03
1.37794649e-03
1.42978804e-03
1.42978804e-03
1.37794649e-03
1.19824687e-03
7.52327403e-04
0.00000000e+00
0.00000000e+00
0.00000000e+00
0.00000000e+00
0.00000000e+00
0.00000000e+00
0.00000000e+00
0.00000000e+00
0.00000000e+00
0.00000000e+00
0.00000000e+00
