# vtk DataFile Version 2.0
Difusion de calor 2D - Tiempo: 1.540000 s
ASCII
DATASET STRUCTURED_POINTS
DIMENSIONS 10 10 1
ORIGIN 0.0 0.0 0.0
SPACING 0.100000 0.100000 1.0
POINT_DATA 100
SCALARS temperatura float 1
LOOKUP_TABLE default
1.00000000e+02
1.00000000e+02
1.00000000e+02
1.00000000e+02
1.00000000e+02
1.00000000e+02
1.00000000e+02
1.00000000e+02
1.00000000e+02
1.00000000e+02
0.00000000e+00
4.85151569e+01
6.66996131e+01
7.41870803e+01
7.70181757e+01
7.70181757e+01
7.41870803e+01
6.66996131e+01
4.85151569e+01
0.00000000e+00
0.00000000e+00
2.73887652e+01
4.41483698e+01
5.31007995e+01
5.69473518e+01
5.69473518e+01
5.31007995e+01
4.41483698e+01
2.73887652e+01
0.00000000e+00
0.00000000e+00
1.69435290e+01
2.95020197e+01
3.72520517e+01
4.08727935e+01
4.08727935e+01
3.72520517e+01
2.95020197e+01
1.69435290e+01
0.00000000e+00
0.00000000e+00
1.09530546e+01
1.97951658e+01
2.57091405e+01
2.86197376e+01
2.86197376e+01
2.57091405e+01
1.97951658e+01
1.09530546e+01
0.00000000e+00
0.00000000e+00
7.15235146e+00
1.31645968e+01
1.73692061e+01
1.95042550e+01
1.95042550e+01
1.73692061e+01
1.31645968e+01
7.15235146e+00
0.00000000e+00
0.00000000e+00
4.57009466e+00
8.48889507e+00
1.12971962e+01
1.27493924e+01
1.27493924e+01
1.12971962e+01
8.48889507e+00
4.57009466e+00
0.00000000e+00
0.00000000e+00
2.70762029e+00
5.05240830e+00
6.75470929e+00
7.64392965e+00
7.64392965e+00
6.75470929e+00
5.05240830e+00
2.70762029e+00
0.00000000e+00
0.00000000e+00
1.25856831e+00
2.35348676e+00
3.15340149e+00
3.57335546e+00
3.57335546e+00
3.15340149e+00
2.35348676e+00
1.25856831e+00
0.00000000e+00
0.00000000e+00
0.00000000e+00
0.00000000e+00
0.00000000e+00
0.00000000e+00
0.00000000e+00
0.00000000e+00
0.00000000e+00
0.00000000e+00
0.00000000e+00
