# vtk DataFile Version 2.0
Difusion de calor 2D - Tiempo: 0.220000 s
ASCII
DATASET STRUCTURED_POINTS
DIMENSIONS 10 10 1
ORIGIN 0.0 0.0 0.0
SPACING 0.100000 0.100000 1.0
POINT_DATA 100
SCALARS temperatura float 1
LOOKUP_TABLE default
1.00000000e+02
1.00000000e+02
1.00000000e+02
1.00000000e+02
1.00000000e+02
1.00000000e+02
1.00000000e+02
1.00000000e+02
1.00000000e+02
1.00000000e+02
0.00000000e+00
4.31894551e+01
5.68659827e+01
6.11979972e+01
6.24348959e+01
6.24348959e+01
6.11979972e+01
5.68659827e+01
4.31894551e+01
0.00000000e+00
0.00000000e+00
1.87821658e+01
2.82342434e+01
3.20467136e+01
3.32849656e+01
3.32849656e+01
3.20467136e+01
2.82342434e+01
1.87821658e+01
0.00000000e+00
0.00000000e+00
7.66492129e+00
1.23092076e+01
1.44525824e+01
1.52097121e+01
1.52097121e+01
1.44525824e+01
1.23092076e+01
7.66492129e+00
0.00000000e+00
0.00000000e+00
2.83582585e+00
4.71669838e+00
5.65743670e+00
6.00871034e+00
6.00871034e+00
5.65743670e+00
4.71669838e+00
2.83582585e+00
0.00000000e+00
0.00000000e+00
9.40165135e-01
1.59541181e+00
1.94022312e+00
2.07393040e+00
2.07393040e+00
1.94022312e+00
1.59541181e+00
9.40165135e-01
0.00000000e+00
0.00000000e+00
2.79163899e-01
4.79592840e-01
5.88684519e-01
6.32123491e-01
6.32123491e-01
5.88684519e-01
4.79592840e-01
2.79163899e-01
0.00000000e+00
0.00000000e+00
7.44356521e-02
1.28906510e-01
1.59254542e-01
1.71572123e-01
1.71572123e-01
1.59254542e-01
1.28906510e-01
7.44356521e-02
0.00000000e+00
0.00000000e+00
1.72323148e-02
2.99994944e-02
3.72268046e-02
4.01999005e-02
4.01999005e-02
3.72268046e-02
2.99994944e-02
1.72323148e-02
0.00000000e+00
0.00000000e+00
0.00000000e+00
0.00000000e+00
0.00000000e+00
0.00000000e+00
0.00000000e+00
0.00000000e+00
0.00000000e+00
0.00000000e+00
0.00000000e+00
