# vtk DataFile Version 2.0
Difusion de calor 2D - Tiempo: 0.680000 s
ASCII
DATASET STRUCTURED_POINTS
DIMENSIONS 10 10 1
ORIGIN 0.0 0.0 0.0
SPACING 0.100000 0.100000 1.0
POINT_DATA 100
SCALARS temperatura float 1
LOOKUP_TABLE default
1.00000000e+02
1.00000000e+02
1.00000000e+02
1.00000000e+02
1.00000000e+02
1.00000000e+02
1.00000000e+02
1.00000000e+02
1.00000000e+02
1.00000000e+02
0.00000000e+00
4.76017902e+01
6.49834667e+01
7.18755681e+01
7.43901003e+01
7.43901003e+01
7.18755681e+01
6.49834667e+01
4.76017902e+01
0.00000000e+00
0.00000000e+00
2.57174675e+01
4.10081175e+01
4.88711133e+01
5.21383942e+01
5.21383942e+01
4.88711133e+01
4.10081175e+01
2.57174675e+01
0.00000000e+00
0.00000000e+00
1.47837124e+01
2.54438512e+01
3.17859651e+01
3.46580794e+01
3.46580794e+01
3.17859651e+01
2.54438512e+01
1.47837124e+01
0.00000000e+00
0.00000000e+00
8.62238256e+00
1.54159378e+01
1.98105584e+01
2.19132575e+01
2.19132575e+01
1.98105584e+01
1.54159378e+01
8.62238256e+00
0.00000000e+00
0.00000000e+00
4.95172866e+00
9.02969107e+00
1.17996603e+01
1.31718385e+01
1.31718385e+01
1.17996603e+01
9.02969107e+00
4.95172866e+00
0.00000000e+00
0.00000000e+00
2.73962130e+00
5.04946079e+00
6.66437778e+00
7.48197608e+00
7.48197608e+00
6.66437778e+00
5.04946079e+00
2.73962130e+00
0.00000000e+00
0.00000000e+00
1.41091999e+00
2.61590882e+00
3.47278832e+00
3.91243527e+00
3.91243527e+00
3.47278832e+00
2.61590882e+00
1.41091999e+00
0.00000000e+00
0.00000000e+00
5.89749787e-01
1.09677083e+00
1.46061834e+00
1.64867970e+00
1.64867970e+00
1.46061834e+00
1.09677083e+00
5.89749787e-01
0.00000000e+00
0.00000000e+00
0.00000000e+00
0.00000000e+00
0.00000000e+00
0.00000000e+00
0.00000000e+00
0.00000000e+00
0.00000000e+00
0.00000000e+00
0.00000000e+00
