# vtk DataFile Version 2.0
Difusion de calor 2D - Tiempo: 1.120000 s
ASCII
DATASET STRUCTURED_POINTS
DIMENSIONS 10 10 1
ORIGIN 0.0 0.0 0.0
SPACING 0.100000 0.100000 1.0
POINT_DATA 100
SCALARS temperatura float 1
LOOKUP_TABLE default
1.00000000e+02
1.00000000e+02
1.00000000e+02
1.00000000e+02
1.00000000e+02
1.00000000e+02
1.00000000e+02
1.00000000e+02
1.00000000e+02
1.00000000e+02
0.00000000e+00
4.83082073e+01
6.63106777e+01
7.36630729e+01
7.64222993e+01
7.64222993e+01
7.36630729e+01
6.63106777e+01
4.83082073e+01
0.00000000e+00
0.00000000e+00
2.70027809e+01
4.34229613e+01
5.21234664e+01
5.58359750e+01
5.58359750e+01
5.21234664e+01
4.34229613e+01
2.70027809e+01
0.00000000e+00
0.00000000e+00
1.64295800e+01
2.85361178e+01
3.59507052e+01
3.93929638e+01
3.93929638e+01
3.59507052e+01
2.85361178e+01
1.64295800e+01
0.00000000e+00
0.00000000e+00
1.03770834e+01
1.87127012e+01
2.42507504e+01
2.69613256e+01
2.69613256e+01
2.42507504e+01
1.87127012e+01
1.03770834e+01
0.00000000e+00
0.00000000e+00
6.58537008e+00
1.20990272e+01
1.59335784e+01
1.78717272e+01
1.78717272e+01
1.59335784e+01
1.20990272e+01
6.58537008e+00
0.00000000e+00
0.00000000e+00
4.07890848e+00
7.56577290e+00
1.00534860e+01
1.13351041e+01
1.13351041e+01
1.00534860e+01
7.56577290e+00
4.07890848e+00
0.00000000e+00
0.00000000e+00
2.34752093e+00
4.37564715e+00
5.84291803e+00
6.60708376e+00
6.60708376e+00
5.84291803e+00
4.37564715e+00
2.34752093e+00
0.00000000e+00
0.00000000e+00
1.06851397e+00
1.99630370e+00
2.67217351e+00
3.02612575e+00
3.02612575e+00
2.67217351e+00
1.99630370e+00
1.06851397e+00
0.00000000e+00
0.00000000e+00
0.00000000e+00
0.00000000e+00
0.00000000e+00
0.00000000e+00
0.00000000e+00
0.00000000e+00
0.00000000e+00
0.00000000e+00
0.00000000e+00
