# vtk DataFile Version 2.0
Difusion de calor 2D - Tiempo: 1.100000 s
ASCII
DATASET STRUCTURED_POINTS
DIMENSIONS 10 10 1
ORIGIN 0.0 0.0 0.0
SPACING 0.100000 0.100000 1.0
POINT_DATA 100
SCALARS temperatura float 1
LOOKUP_TABLE default
1.00000000e+02
1.00000000e+02
1.00000000e+02
1.00000000e+02
1.00000000e+02
1.00000000e+02
1.00000000e+02
1.00000000e+02
1.00000000e+02
1.00000000e+02
0.00000000e+00
4.82916457e+01
6.62795527e+01
7.36211393e+01
7.63746150e+01
7.63746150e+01
7.36211393e+01
6.62795527e+01
4.82916457e+01
0.00000000e+00
0.00000000e+00
2.69720605e+01
4.33652271e+01
5.20456833e+01
5.57475246e+01
5.57475246e+01
5.20456833e+01
4.33652271e+01
2.69720605e+01
0.00000000e+00
0.00000000e+00
1.63890245e+01
2.84599001e+01
3.58480197e+01
3.92761960e+01
3.92761960e+01
3.58480197e+01
2.84599001e+01
1.63890245e+01
0.00000000e+00
0.00000000e+00
1.03321237e+01
1.86282063e+01
2.41369135e+01
2.68318770e+01
2.68318770e+01
2.41369135e+01
1.86282063e+01
1.03321237e+01
0.00000000e+00
0.00000000e+00
6.54163686e+00
1.20168373e+01
1.58228470e+01
1.77458099e+01
1.77458099e+01
1.58228470e+01
1.20168373e+01
6.54163686e+00
0.00000000e+00
0.00000000e+00
4.04145865e+00
7.49539170e+00
9.95866397e+00
1.12272780e+01
1.12272780e+01
9.95866397e+00
7.49539170e+00
4.04145865e+00
0.00000000e+00
0.00000000e+00
2.32033220e+00
4.32455012e+00
5.77407683e+00
6.52880165e+00
6.52880165e+00
5.77407683e+00
4.32455012e+00
2.32033220e+00
0.00000000e+00
0.00000000e+00
1.05425747e+00
1.96951080e+00
2.63607639e+00
2.98507825e+00
2.98507825e+00
2.63607639e+00
1.96951080e+00
1.05425747e+00
0.00000000e+00
0.00000000e+00
0.00000000e+00
0.00000000e+00
0.00000000e+00
0.00000000e+00
0.00000000e+00
0.00000000e+00
0.00000000e+00
0.00000000e+00
0.00000000e+00
