# vtk DataFile Version 2.0
Difusion de calor 2D - Tiempo: 1.060000 s
ASCII
DATASET STRUCTURED_POINTS
DIMENSIONS 10 10 1
ORIGIN 0.0 0.0 0.0
SPACING 0.100000 0.100000 1.0
POINT_DATA 100
SCALARS temperatura float 1
LOOKUP_TABLE default
1.00000000e+02
1.00000000e+02
1.00000000e+02
1.00000000e+02
1.00000000e+02
1.00000000e+02
1.00000000e+02
1.00000000e+02
1.00000000e+02
1.00000000e+02
0.00000000e+00
4.82557457e+01
6.62120847e+01
7.35302426e+01
7.62712532e+01
7.62712532e+01
7.35302426e+01
6.62120847e+01
4.82557457e+01
0.00000000e+00
0.00000000e+00
2.69055616e+01
4.32402534e+01
5.18773118e+01
5.55560636e+01
5.55560636e+01
5.18773118e+01
4.32402534e+01
2.69055616e+01
0.00000000e+00
0.00000000e+00
1.63014274e+01
2.82952758e+01
3.56262290e+01
3.90239901e+01
3.90239901e+01
3.56262290e+01
2.82952758e+01
1.63014274e+01
0.00000000e+00
0.00000000e+00
1.02352830e+01
1.84462103e+01
2.38917186e+01
2.65530573e+01
2.65530573e+01
2.38917186e+01
1.84462103e+01
1.02352830e+01
0.00000000e+00
0.00000000e+00
6.44772798e+00
1.18403512e+01
1.55850753e+01
1.74754314e+01
1.74754314e+01
1.55850753e+01
1.18403512e+01
6.44772798e+00
0.00000000e+00
0.00000000e+00
3.96128515e+00
7.34471894e+00
9.75566942e+00
1.09964459e+01
1.09964459e+01
9.75566942e+00
7.34471894e+00
3.96128515e+00
0.00000000e+00
0.00000000e+00
2.26227511e+00
4.21544147e+00
5.62707971e+00
6.36164609e+00
6.36164609e+00
5.62707971e+00
4.21544147e+00
2.26227511e+00
0.00000000e+00
0.00000000e+00
1.02386754e+00
1.91239797e+00
2.55913088e+00
2.89758083e+00
2.89758083e+00
2.55913088e+00
1.91239797e+00
1.02386754e+00
0.00000000e+00
0.00000000e+00
0.00000000e+00
0.00000000e+00
0.00000000e+00
0.00000000e+00
0.00000000e+00
0.00000000e+00
0.00000000e+00
0.00000000e+00
0.00000000e+00
