# vtk DataFile Version 2.0
Difusion de calor 2D - Tiempo: 1.740000 s
ASCII
DATASET STRUCTURED_POINTS
DIMENSIONS 10 10 1
ORIGIN 0.0 0.0 0.0
SPACING 0.100000 0.100000 1.0
POINT_DATA 100
SCALARS temperatura float 1
LOOKUP_TABLE default
1.00000000e+02
1.00000000e+02
1.00000000e+02
1.00000000e+02
1.00000000e+02
1.00000000e+02
1.00000000e+02
1.00000000e+02
1.00000000e+02
1.00000000e+02
0.00000000e+00
4.85589977e+01
6.67820070e+01
7.42980891e+01
7.71444103e+01
7.71444103e+01
7.42980891e+01
6.67820070e+01
4.85589977e+01
0.00000000e+00
0.00000000e+00
2.74709717e+01
4.43028674e+01
5.33089535e+01
5.71840558e+01
5.71840558e+01
5.33089535e+01
4.43028674e+01
2.74709717e+01
0.00000000e+00
0.00000000e+00
1.70538989e+01
2.97094473e+01
3.75315181e+01
4.11905908e+01
4.11905908e+01
3.75315181e+01
2.97094473e+01
1.70538989e+01
0.00000000e+00
0.00000000e+00
1.10780235e+01
2.00300305e+01
2.60255728e+01
2.89795711e+01
2.89795711e+01
2.60255728e+01
2.00300305e+01
1.10780235e+01
0.00000000e+00
0.00000000e+00
7.27674688e+00
1.33983837e+01
1.76841862e+01
1.98624371e+01
1.98624371e+01
1.76841862e+01
1.33983837e+01
7.27674688e+00
0.00000000e+00
0.00000000e+00
4.67901238e+00
8.69359338e+00
1.15729854e+01
1.30630083e+01
1.30630083e+01
1.15729854e+01
8.69359338e+00
4.67901238e+00
0.00000000e+00
0.00000000e+00
2.78817541e+00
5.20380236e+00
6.95868191e+00
7.87587872e+00
7.87587872e+00
6.95868191e+00
5.20380236e+00
2.78817541e+00
0.00000000e+00
0.00000000e+00
1.30133129e+00
2.43385486e+00
3.26168110e+00
3.69648646e+00
3.69648646e+00
3.26168110e+00
2.43385486e+00
1.30133129e+00
0.00000000e+00
0.00000000e+00
0.00000000e+00
0.00000000e+00
0.00000000e+00
0.00000000e+00
0.00000000e+00
0.00000000e+00
0.00000000e+00
0.00000000e+00
0.00000000e+00
