# vtk DataFile Version 2.0
Difusion de calor 2D - Tiempo: 1.500000 s
ASCII
DATASET STRUCTURED_POINTS
DIMENSIONS 10 10 1
ORIGIN 0.0 0.0 0.0
SPACING 0.100000 0.100000 1.0
POINT_DATA 100
SCALARS temperatura float 1
LOOKUP_TABLE default
1.00000000e+02
1.00000000e+02
1.00000000e+02
1.00000000e+02
1.00000000e+02
1.00000000e+02
1.00000000e+02
1.00000000e+02
1.00000000e+02
1.00000000e+02
0.00000000e+00
4.85034891e+01
6.66776849e+01
7.41575365e+01
7.69845798e+01
7.69845798e+01
7.41575365e+01
6.66776849e+01
4.85034891e+01
0.00000000e+00
0.00000000e+00
2.73669089e+01
4.41072934e+01
5.30454575e+01
5.68844192e+01
5.68844192e+01
5.30454575e+01
4.41072934e+01
2.73669089e+01
0.00000000e+00
0.00000000e+00
1.69142304e+01
2.94469565e+01
3.71778654e+01
4.07884318e+01
4.07884318e+01
3.71778654e+01
2.94469565e+01
1.69142304e+01
0.00000000e+00
0.00000000e+00
1.09199444e+01
1.97329391e+01
2.56253027e+01
2.85244009e+01
2.85244009e+01
2.56253027e+01
1.97329391e+01
1.09199444e+01
0.00000000e+00
0.00000000e+00
7.11946134e+00
1.31027836e+01
1.72859255e+01
1.94095518e+01
1.94095518e+01
1.72859255e+01
1.31027836e+01
7.11946134e+00
0.00000000e+00
0.00000000e+00
4.54135329e+00
8.43487901e+00
1.12244206e+01
1.26666351e+01
1.26666351e+01
1.12244206e+01
8.43487901e+00
4.54135329e+00
0.00000000e+00
0.00000000e+00
2.68639757e+00
5.01252266e+00
6.70097155e+00
7.58282138e+00
7.58282138e+00
6.70097155e+00
5.01252266e+00
2.68639757e+00
0.00000000e+00
0.00000000e+00
1.24731409e+00
2.33233577e+00
3.12490485e+00
3.54095028e+00
3.54095028e+00
3.12490485e+00
2.33233577e+00
1.24731409e+00
0.00000000e+00
0.00000000e+00
0.00000000e+00
0.00000000e+00
0.00000000e+00
0.00000000e+00
0.00000000e+00
0.00000000e+00
0.00000000e+00
0.00000000e+00
0.00000000e+00
