# vtk DataFile Version 2.0
Difusion de calor 2D - Tiempo: 1.780000 s
ASCII
DATASET STRUCTURED_POINTS
DIMENSIONS 10 10 1
ORIGIN 0.0 0.0 0.0
SPACING 0.100000 0.100000 1.0
POINT_DATA 100
SCALARS temperatura float 1
LOOKUP_TABLE default
1.00000000e+02
1.00000000e+02
1.00000000e+02
1.00000000e+02
1.00000000e+02
1.00000000e+02
1.00000000e+02
1.00000000e+02
1.00000000e+02
1.00000000e+02
0.00000000e+00
4.85654718e+01
6.67941741e+01
7.43144819e+01
7.71630515e+01
7.71630515e+01
7.43144819e+01
6.67941741e+01
4.85654718e+01
0.00000000e+00
0.00000000e+00
2.74831214e+01
4.43257013e+01
5.33397176e+01
5.72190394e+01
5.72190394e+01
5.33397176e+01
4.43257013e+01
2.74831214e+01
0.00000000e+00
0.00000000e+00
1.70702320e+01
2.97401435e+01
3.75728749e+01
4.12376201e+01
4.12376201e+01
3.75728749e+01
2.97401435e+01
1.70702320e+01
0.00000000e+00
0.00000000e+00
1.10965464e+01
2.00648423e+01
2.60724745e+01
2.90329058e+01
2.90329058e+01
2.60724745e+01
2.00648423e+01
1.10965464e+01
0.00000000e+00
0.00000000e+00
7.29521624e+00
1.34330947e+01
1.77309523e+01
1.99156175e+01
1.99156175e+01
1.77309523e+01
1.34330947e+01
7.29521624e+00
0.00000000e+00
0.00000000e+00
4.69520979e+00
8.72403456e+00
1.16139987e+01
1.31096468e+01
1.31096468e+01
1.16139987e+01
8.72403456e+00
4.69520979e+00
0.00000000e+00
0.00000000e+00
2.80017079e+00
5.22634629e+00
6.98905526e+00
7.91041801e+00
7.91041801e+00
6.98905526e+00
5.22634629e+00
2.80017079e+00
0.00000000e+00
0.00000000e+00
1.30770459e+00
2.44583275e+00
3.27781887e+00
3.71483765e+00
3.71483765e+00
3.27781887e+00
2.44583275e+00
1.30770459e+00
0.00000000e+00
0.00000000e+00
0.00000000e+00
0.00000000e+00
0.00000000e+00
0.00000000e+00
0.00000000e+00
0.00000000e+00
0.00000000e+00
0.00000000e+00
0.00000000e+00
