# vtk DataFile Version 2.0
Difusion de calor 2D - Tiempo: 0.980000 s
ASCII
DATASET STRUCTURED_POINTS
DIMENSIONS 10 10 1
ORIGIN 0.0 0.0 0.0
SPACING 0.100000 0.100000 1.0
POINT_DATA 100
SCALARS temperatura float 1
LOOKUP_TABLE default
1.00000000e+02
1.00000000e+02
1.00000000e+02
1.00000000e+02
1.00000000e+02
1.00000000e+02
1.00000000e+02
1.00000000e+02
1.00000000e+02
1.00000000e+02
0.00000000e+00
4.81711138e+01
6.60530363e+01
7.33159689e+01
7.60275987e+01
7.60275987e+01
7.33159689e+01
6.60530363e+01
4.81711138e+01
0.00000000e+00
0.00000000e+00
2.67493056e+01
4.29466021e+01
5.14816980e+01
5.51062040e+01
5.51062040e+01
5.14816980e+01
4.29466021e+01
2.67493056e+01
0.00000000e+00
0.00000000e+00
1.60966535e+01
2.79104452e+01
3.51077761e+01
3.84344480e+01
3.84344480e+01
3.51077761e+01
2.79104452e+01
1.60966535e+01
0.00000000e+00
0.00000000e+00
1.00103856e+01
1.80235614e+01
2.33223161e+01
2.59055795e+01
2.59055795e+01
2.33223161e+01
1.80235614e+01
1.00103856e+01
0.00000000e+00
0.00000000e+00
6.23123551e+00
1.14334978e+01
1.50369527e+01
1.68521515e+01
1.68521515e+01
1.50369527e+01
1.14334978e+01
6.23123551e+00
0.00000000e+00
0.00000000e+00
3.77779367e+00
6.99988413e+00
9.29109983e+00
1.04681754e+01
1.04681754e+01
9.29109983e+00
6.99988413e+00
3.77779367e+00
0.00000000e+00
0.00000000e+00
2.13022087e+00
3.96727246e+00
5.29274055e+00
5.98146302e+00
5.98146302e+00
5.29274055e+00
3.96727246e+00
2.13022087e+00
0.00000000e+00
0.00000000e+00
9.55032367e-01
1.78303631e+00
2.38485178e+00
2.69940492e+00
2.69940492e+00
2.38485178e+00
1.78303631e+00
9.55032367e-01
0.00000000e+00
0.00000000e+00
0.00000000e+00
0.00000000e+00
0.00000000e+00
0.00000000e+00
0.00000000e+00
0.00000000e+00
0.00000000e+00
0.00000000e+00
0.00000000e+00
