# vtk DataFile Version 2.0
Difusion de calor 2D - Tiempo: 0.500000 s
ASCII
DATASET STRUCTURED_POINTS
DIMENSIONS 10 10 1
ORIGIN 0.0 0.0 0.0
SPACING 0.100000 0.100000 1.0
POINT_DATA 100
SCALARS temperatura float 1
LOOKUP_TABLE default
1.00000000e+02
1.00000000e+02
1.00000000e+02
1.00000000e+02
1.00000000e+02
1.00000000e+02
1.00000000e+02
1.00000000e+02
1.00000000e+02
1.00000000e+02
0.00000000e+00
4.68553059e+01
6.35839306e+01
6.99951763e+01
7.22556530e+01
7.22556530e+01
6.99951763e+01
6.35839306e+01
4.68553059e+01
0.00000000e+00
0.00000000e+00
2.44146859e+01
3.85655840e+01
4.55893211e+01
4.84131714e+01
4.84131714e+01
4.55893211e+01
3.85655840e+01
2.44146859e+01
0.00000000e+00
0.00000000e+00
1.32241920e+01
2.25199083e+01
2.78572587e+01
3.01984640e+01
3.01984640e+01
2.78572587e+01
2.25199083e+01
1.32241920e+01
0.00000000e+00
0.00000000e+00
7.10221140e+00
1.25656927e+01
1.59807553e+01
1.75658220e+01
1.75658220e+01
1.59807553e+01
1.25656927e+01
7.10221140e+00
0.00000000e+00
0.00000000e+00
3.67848415e+00
6.64234319e+00
8.59172110e+00
9.53022859e+00
9.53022859e+00
8.59172110e+00
6.64234319e+00
3.67848415e+00
0.00000000e+00
0.00000000e+00
1.80644384e+00
3.29968067e+00
4.31305960e+00
4.81272056e+00
4.81272056e+00
4.31305960e+00
3.29968067e+00
1.80644384e+00
0.00000000e+00
0.00000000e+00
8.22313071e-01
1.51218820e+00
1.98957476e+00
2.22862442e+00
2.22862442e+00
1.98957476e+00
1.51218820e+00
8.22313071e-01
0.00000000e+00
0.00000000e+00
3.10515896e-01
5.73154970e-01
7.56947234e-01
8.49825633e-01
8.49825633e-01
7.56947234e-01
5.73154970e-01
3.10515896e-01
0.00000000e+00
0.00000000e+00
0.00000000e+00
0.00000000e+00
0.00000000e+00
0.00000000e+00
0.00000000e+00
0.00000000e+00
0.00000000e+00
0.00000000e+00
0.00000000e+00
