# vtk DataFile Version 2.0
Difusion de calor 2D - Tiempo: 1.520000 s
ASCII
DATASET STRUCTURED_POINTS
DIMENSIONS 10 10 1
ORIGIN 0.0 0.0 0.0
SPACING 0.100000 0.100000 1.0
POINT_DATA 100
SCALARS temperatura float 1
LOOKUP_TABLE default
1.00000000e+02
1.00000000e+02
1.00000000e+02
1.00000000e+02
1.00000000e+02
1.00000000e+02
1.00000000e+02
1.00000000e+02
1.00000000e+02
1.00000000e+02
0.00000000e+00
4.85094673e+01
6.66889202e+01
7.41726737e+01
7.70017932e+01
7.70017932e+01
7.41726737e+01
6.66889202e+01
4.85094673e+01
0.00000000e+00
0.00000000e+00
2.73781061e+01
4.41283373e+01
5.30738098e+01
5.69166602e+01
5.69166602e+01
5.30738098e+01
4.41283373e+01
2.73781061e+01
0.00000000e+00
0.00000000e+00
1.69292378e+01
2.94751612e+01
3.72158654e+01
4.08316439e+01
4.08316439e+01
3.72158654e+01
2.94751612e+01
1.69292378e+01
0.00000000e+00
0.00000000e+00
1.09369007e+01
1.97648065e+01
2.56682374e+01
2.85732244e+01
2.85732244e+01
2.56682374e+01
1.97648065e+01
1.09369007e+01
0.00000000e+00
0.00000000e+00
7.13630112e+00
1.31344320e+01
1.73285652e+01
1.94580399e+01
1.94580399e+01
1.73285652e+01
1.31344320e+01
7.13630112e+00
0.00000000e+00
0.00000000e+00
4.55606574e+00
8.46252935e+00
1.12616738e+01
1.27089978e+01
1.27089978e+01
1.12616738e+01
8.46252935e+00
4.55606574e+00
0.00000000e+00
0.00000000e+00
2.69725938e+00
5.03293615e+00
6.72847456e+00
7.61409663e+00
7.61409663e+00
6.72847456e+00
5.03293615e+00
2.69725938e+00
0.00000000e+00
0.00000000e+00
1.25307334e+00
2.34315960e+00
3.13948776e+00
3.55753334e+00
3.55753334e+00
3.13948776e+00
2.34315960e+00
1.25307334e+00
0.00000000e+00
0.00000000e+00
0.00000000e+00
0.00000000e+00
0.00000000e+00
0.00000000e+00
0.00000000e+00
0.00000000e+00
0.00000000e+00
0.00000000e+00
0.00000000e+00
