# vtk DataFile Version 2.0
Difusion de calor 2D - Tiempo: 0.600000 s
ASCII
DATASET STRUCTURED_POINTS
DIMENSIONS 10 10 1
ORIGIN 0.0 0.0 0.0
SPACING 0.100000 0.100000 1.0
POINT_DATA 100
SCALARS temperatura float 1
LOOKUP_TABLE default
1.00000000e+02
1.00000000e+02
1.00000000e+02
1.00000000e+02
1.00000000e+02
1.00000000e+02
1.00000000e+02
1.00000000e+02
1.00000000e+02
1.00000000e+02
0.00000000e+00
4.73307083e+01
6.44746856e+01
7.11911401e+01
7.36125773e+01
7.36125773e+01
7.11911401e+01
6.44746856e+01
4.73307083e+01
0.00000000e+00
0.00000000e+00
2.52379197e+01
4.01080751e+01
4.76603468e+01
5.07629397e+01
5.07629397e+01
4.76603468e+01
4.01080751e+01
2.52379197e+01
0.00000000e+00
0.00000000e+00
1.41970585e+01
2.43427837e+01
3.03047696e+01
3.29754095e+01
3.29754095e+01
3.03047696e+01
2.43427837e+01
1.41970585e+01
0.00000000e+00
0.00000000e+00
8.03393772e+00
1.43115060e+01
1.83248325e+01
2.02254376e+01
2.02254376e+01
1.83248325e+01
1.43115060e+01
8.03393772e+00
0.00000000e+00
0.00000000e+00
4.44204877e+00
8.07308736e+00
1.05127939e+01
1.17099242e+01
1.17099242e+01
1.05127939e+01
8.07308736e+00
4.44204877e+00
0.00000000e+00
0.00000000e+00
2.35255493e+00
4.32298439e+00
5.68708520e+00
6.37174296e+00
6.37174296e+00
5.68708520e+00
4.32298439e+00
2.35255493e+00
0.00000000e+00
0.00000000e+00
1.15859218e+00
2.14231875e+00
2.83568880e+00
3.18866974e+00
3.18866974e+00
2.83568880e+00
2.14231875e+00
1.15859218e+00
0.00000000e+00
0.00000000e+00
4.67123033e-01
8.66614069e-01
1.15099792e+00
1.29694033e+00
1.29694033e+00
1.15099792e+00
8.66614069e-01
4.67123033e-01
0.00000000e+00
0.00000000e+00
0.00000000e+00
0.00000000e+00
0.00000000e+00
0.00000000e+00
0.00000000e+00
0.00000000e+00
0.00000000e+00
0.00000000e+00
0.00000000e+00
