# vtk DataFile Version 2.0
Difusion de calor 2D - Tiempo: 1.640000 s
ASCII
DATASET STRUCTURED_POINTS
DIMENSIONS 10 10 1
ORIGIN 0.0 0.0 0.0
SPACING 0.100000 0.100000 1.0
POINT_DATA 100
SCALARS temperatura float 1
LOOKUP_TABLE default
1.00000000e+02
1.00000000e+02
1.00000000e+02
1.00000000e+02
1.00000000e+02
1.00000000e+02
1.00000000e+02
1.00000000e+02
1.00000000e+02
1.00000000e+02
0.00000000e+00
4.85397533e+01
6.67458392e+01
7.42493604e+01
7.70889981e+01
7.70889981e+01
7.42493604e+01
6.67458392e+01
4.85397533e+01
0.00000000e+00
0.00000000e+00
2.74348708e+01
4.42350199e+01
5.32175429e+01
5.70801074e+01
5.70801074e+01
5.32175429e+01
4.42350199e+01
2.74348708e+01
0.00000000e+00
0.00000000e+00
1.70053982e+01
2.96182959e+01
3.74087101e+01
4.10509388e+01
4.10509388e+01
3.74087101e+01
2.96182959e+01
1.70053982e+01
0.00000000e+00
0.00000000e+00
1.10230630e+01
1.99267387e+01
2.58864080e+01
2.88213188e+01
2.88213188e+01
2.58864080e+01
1.99267387e+01
1.10230630e+01
0.00000000e+00
0.00000000e+00
7.22199114e+00
1.32954765e+01
1.75455398e+01
1.97047742e+01
1.97047742e+01
1.75455398e+01
1.32954765e+01
7.22199114e+00
0.00000000e+00
0.00000000e+00
4.63103013e+00
8.60341626e+00
1.14514901e+01
1.29248489e+01
1.29248489e+01
1.14514901e+01
8.60341626e+00
4.63103013e+00
0.00000000e+00
0.00000000e+00
2.75266400e+00
5.13706275e+00
6.86876389e+00
7.77362773e+00
7.77362773e+00
6.86876389e+00
5.13706275e+00
2.75266400e+00
0.00000000e+00
0.00000000e+00
1.28247159e+00
2.39841023e+00
3.21392669e+00
3.64218215e+00
3.64218215e+00
3.21392669e+00
2.39841023e+00
1.28247159e+00
0.00000000e+00
0.00000000e+00
0.00000000e+00
0.00000000e+00
0.00000000e+00
0.00000000e+00
0.00000000e+00
0.00000000e+00
0.00000000e+00
0.00000000e+00
0.00000000e+00
