# vtk DataFile Version 2.0
Difusion de calor 2D - Tiempo: 0.260000 s
ASCII
DATASET STRUCTURED_POINTS
DIMENSIONS 10 10 1
ORIGIN 0.0 0.0 0.0
SPACING 0.100000 0.100000 1.0
POINT_DATA 100
SCALARS temperatura float 1
LOOKUP_TABLE default
1.00000000e+02
1.00000000e+02
1.00000000e+02
1.00000000e+02
1.00000000e+02
1.00000000e+02
1.00000000e+02
1.00000000e+02
1.00000000e+02
1.00000000e+02
0.00000000e+00
4.41779212e+01
5.86438933e+01
6.34773172e+01
6.49443798e+01
6.49443798e+01
6.34773172e+01
5.86438933e+01
4.41779212e+01
0.00000000e+00
0.00000000e+00
2.01797868e+01
3.07484056e+01
3.52703272e+01
3.68343575e+01
3.68343575e+01
3.52703272e+01
3.07484056e+01
2.01797868e+01
0.00000000e+00
0.00000000e+00
8.87234152e+00
1.44815386e+01
1.72383187e+01
1.82772478e+01
1.82772478e+01
1.72383187e+01
1.44815386e+01
8.87234152e+00
0.00000000e+00
0.00000000e+00
3.60936608e+00
6.10862323e+00
7.44268178e+00
7.97473690e+00
7.97473690e+00
7.44268178e+00
6.10862323e+00
3.60936608e+00
0.00000000e+00
0.00000000e+00
1.33617620e+00
2.30811254e+00
2.85446506e+00
3.08085717e+00
3.08085717e+00
2.85446506e+00
2.30811254e+00
1.33617620e+00
0.00000000e+00
0.00000000e+00
4.48077634e-01
7.83636097e-01
9.78776073e-01
1.06181084e+00
1.06181084e+00
9.78776073e-01
7.83636097e-01
4.48077634e-01
0.00000000e+00
0.00000000e+00
1.35909454e-01
2.39577731e-01
3.01274058e-01
3.28026164e-01
3.28026164e-01
3.01274058e-01
2.39577731e-01
1.35909454e-01
0.00000000e+00
0.00000000e+00
3.55717875e-02
6.30213035e-02
7.96097635e-02
8.68958892e-02
8.68958892e-02
7.96097635e-02
6.30213035e-02
3.55717875e-02
0.00000000e+00
0.00000000e+00
0.00000000e+00
0.00000000e+00
0.00000000e+00
0.00000000e+00
0.00000000e+00
0.00000000e+00
0.00000000e+00
0.00000000e+00
0.00000000e+00
