# vtk DataFile Version 2.0
Difusion de calor 2D - Tiempo: 0.480000 s
ASCII
DATASET STRUCTURED_POINTS
DIMENSIONS 10 10 1
ORIGIN 0.0 0.0 0.0
SPACING 0.100000 0.100000 1.0
POINT_DATA 100
SCALARS temperatura float 1
LOOKUP_TABLE default
1.00000000e+02
1.00000000e+02
1.00000000e+02
1.00000000e+02
1.00000000e+02
1.00000000e+02
1.00000000e+02
1.00000000e+02
1.00000000e+02
1.00000000e+02
0.00000000e+00
4.67347774e+01
6.33585073e+01
6.96931408e+01
7.19134334e+01
7.19134334e+01
6.96931408e+01
6.33585073e+01
4.67347774e+01
0.00000000e+00
0.00000000e+00
2.42094984e+01
3.81818231e+01
4.50751350e+01
4.78305753e+01
4.78305753e+01
4.50751350e+01
3.81818231e+01
2.42094984e+01
0.00000000e+00
0.00000000e+00
1.29883434e+01
2.20788017e+01
2.72662364e+01
2.95288084e+01
2.95288084e+01
2.72662364e+01
2.20788017e+01
1.29883434e+01
0.00000000e+00
0.00000000e+00
6.88463959e+00
1.21587685e+01
1.54355317e+01
1.69480577e+01
1.69480577e+01
1.54355317e+01
1.21587685e+01
6.88463959e+00
0.00000000e+00
0.00000000e+00
3.50812343e+00
6.32371727e+00
8.16480446e+00
9.04651109e+00
9.04651109e+00
8.16480446e+00
6.32371727e+00
3.50812343e+00
0.00000000e+00
0.00000000e+00
1.69062836e+00
3.08307045e+00
4.02282999e+00
4.48387575e+00
4.48387575e+00
4.02282999e+00
3.08307045e+00
1.69062836e+00
0.00000000e+00
0.00000000e+00
7.54479038e-01
1.38531770e+00
1.81958446e+00
2.03601662e+00
2.03601662e+00
1.81958446e+00
1.38531770e+00
7.54479038e-01
0.00000000e+00
0.00000000e+00
2.80131988e-01
5.16327661e-01
6.80805786e-01
7.63553366e-01
7.63553366e-01
6.80805786e-01
5.16327661e-01
2.80131988e-01
0.00000000e+00
0.00000000e+00
0.00000000e+00
0.00000000e+00
0.00000000e+00
0.00000000e+00
0.00000000e+00
0.00000000e+00
0.00000000e+00
0.00000000e+00
0.00000000e+00
