# vtk DataFile Version 2.0
Difusion de calor 2D - Tiempo: 1.180000 s
ASCII
DATASET STRUCTURED_POINTS
DIMENSIONS 10 10 1
ORIGIN 0.0 0.0 0.0
SPACING 0.100000 0.100000 1.0
POINT_DATA 100
SCALARS temperatura float 1
LOOKUP_TABLE default
1.00000000e+02
1.00000000e+02
1.00000000e+02
1.00000000e+02
1.00000000e+02
1.00000000e+02
1.00000000e+02
1.00000000e+02
1.00000000e+02
1.00000000e+02
0.00000000e+00
4.83529550e+01
6.63947746e+01
7.37763743e+01
7.65511396e+01
7.65511396e+01
7.37763743e+01
6.63947746e+01
4.83529550e+01
0.00000000e+00
0.00000000e+00
2.70859159e+01
4.35792016e+01
5.23339649e+01
5.60753424e+01
5.60753424e+01
5.23339649e+01
4.35792016e+01
2.70859159e+01
0.00000000e+00
0.00000000e+00
1.65396047e+01
2.87428935e+01
3.62292885e+01
3.97097536e+01
3.97097536e+01
3.62292885e+01
2.87428935e+01
1.65396047e+01
0.00000000e+00
0.00000000e+00
1.04994428e+01
1.89426581e+01
2.45605652e+01
2.73136300e+01
2.73136300e+01
2.45605652e+01
1.89426581e+01
1.04994428e+01
0.00000000e+00
0.00000000e+00
6.70480826e+00
1.23234942e+01
1.62359969e+01
1.82156209e+01
1.82156209e+01
1.62359969e+01
1.23234942e+01
6.70480826e+00
0.00000000e+00
0.00000000e+00
4.18153653e+00
7.75864765e+00
1.03133411e+01
1.16305970e+01
1.16305970e+01
1.03133411e+01
7.75864765e+00
4.18153653e+00
0.00000000e+00
0.00000000e+00
2.42224479e+00
4.51607997e+00
6.03211944e+00
6.82223328e+00
6.82223328e+00
6.03211944e+00
4.51607997e+00
2.42224479e+00
0.00000000e+00
0.00000000e+00
1.10777165e+00
2.07008289e+00
2.77157426e+00
3.13915886e+00
3.13915886e+00
2.77157426e+00
2.07008289e+00
1.10777165e+00
0.00000000e+00
0.00000000e+00
0.00000000e+00
0.00000000e+00
0.00000000e+00
0.00000000e+00
0.00000000e+00
0.00000000e+00
0.00000000e+00
0.00000000e+00
0.00000000e+00
