# vtk DataFile Version 2.0
Difusion de calor 2D - Tiempo: 1.160000 s
ASCII
DATASET STRUCTURED_POINTS
DIMENSIONS 10 10 1
ORIGIN 0.0 0.0 0.0
SPACING 0.100000 0.100000 1.0
POINT_DATA 100
SCALARS temperatura float 1
LOOKUP_TABLE default
1.00000000e+02
1.00000000e+02
1.00000000e+02
1.00000000e+02
1.00000000e+02
1.00000000e+02
1.00000000e+02
1.00000000e+02
1.00000000e+02
1.00000000e+02
0.00000000e+00
4.83388150e+01
6.63682003e+01
7.37405714e+01
7.65104264e+01
7.65104264e+01
7.37405714e+01
6.63682003e+01
4.83388150e+01
0.00000000e+00
0.00000000e+00
2.70596250e+01
4.35297916e+01
5.22673959e+01
5.59996436e+01
5.59996436e+01
5.22673959e+01
4.35297916e+01
2.70596250e+01
0.00000000e+00
0.00000000e+00
1.65047674e+01
2.86774217e+01
3.61410799e+01
3.96094474e+01
3.96094474e+01
3.61410799e+01
2.86774217e+01
1.65047674e+01
0.00000000e+00
0.00000000e+00
1.04606399e+01
1.88697334e+01
2.44623155e+01
2.72019056e+01
2.72019056e+01
2.44623155e+01
1.88697334e+01
1.04606399e+01
0.00000000e+00
0.00000000e+00
6.66686698e+00
1.22521888e+01
1.61399287e+01
1.81063772e+01
1.81063772e+01
1.61399287e+01
1.22521888e+01
6.66686698e+00
0.00000000e+00
0.00000000e+00
4.14888096e+00
7.69727602e+00
1.02306565e+01
1.15365724e+01
1.15365724e+01
1.02306565e+01
7.69727602e+00
4.14888096e+00
0.00000000e+00
0.00000000e+00
2.39843483e+00
4.47133244e+00
5.97183210e+00
6.75367768e+00
6.75367768e+00
5.97183210e+00
4.47133244e+00
2.39843483e+00
0.00000000e+00
0.00000000e+00
1.09525089e+00
2.04655186e+00
2.73987142e+00
3.10310805e+00
3.10310805e+00
2.73987142e+00
2.04655186e+00
1.09525089e+00
0.00000000e+00
0.00000000e+00
0.00000000e+00
0.00000000e+00
0.00000000e+00
0.00000000e+00
0.00000000e+00
0.00000000e+00
0.00000000e+00
0.00000000e+00
0.00000000e+00
