# vtk DataFile Version 2.0
Difusion de calor 2D - Tiempo: 1.860000 s
ASCII
DATASET STRUCTURED_POINTS
DIMENSIONS 10 10 1
ORIGIN 0.0 0.0 0.0
SPACING 0.100000 0.100000 1.0
POINT_DATA 100
SCALARS temperatura float 1
LOOKUP_TABLE default
1.00000000e+02
1.00000000e+02
1.00000000e+02
1.00000000e+02
1.00000000e+02
1.00000000e+02
1.00000000e+02
1.00000000e+02
1.00000000e+02
1.00000000e+02
0.00000000e+00
4.85766721e+01
6.68152238e+01
7.43428421e+01
7.71953015e+01
7.71953015e+01
7.43428421e+01
6.68152238e+01
4.85766721e+01
0.00000000e+00
0.00000000e+00
2.75041463e+01
4.43652153e+01
5.33929546e+01
5.72795783e+01
5.72795783e+01
5.33929546e+01
4.43652153e+01
2.75041463e+01
0.00000000e+00
0.00000000e+00
1.70985077e+01
2.97932845e+01
3.76444716e+01
4.13190368e+01
4.13190368e+01
3.76444716e+01
2.97932845e+01
1.70985077e+01
0.00000000e+00
0.00000000e+00
1.11286292e+01
2.01251382e+01
2.61537109e+01
2.91252844e+01
2.91252844e+01
2.61537109e+01
2.01251382e+01
1.11286292e+01
0.00000000e+00
0.00000000e+00
7.32722318e+00
1.34932481e+01
1.78119967e+01
2.00077777e+01
2.00077777e+01
1.78119967e+01
1.34932481e+01
7.32722318e+00
0.00000000e+00
0.00000000e+00
4.72329357e+00
8.77681481e+00
1.16851093e+01
1.31905109e+01
1.31905109e+01
1.16851093e+01
8.77681481e+00
4.72329357e+00
0.00000000e+00
0.00000000e+00
2.82097743e+00
5.26545000e+00
7.04173954e+00
7.97032836e+00
7.97032836e+00
7.04173954e+00
5.26545000e+00
2.82097743e+00
0.00000000e+00
0.00000000e+00
1.31876242e+00
2.46661466e+00
3.30581827e+00
3.74667739e+00
3.74667739e+00
3.30581827e+00
2.46661466e+00
1.31876242e+00
0.00000000e+00
0.00000000e+00
0.00000000e+00
0.00000000e+00
0.00000000e+00
0.00000000e+00
0.00000000e+00
0.00000000e+00
0.00000000e+00
0.00000000e+00
0.00000000e+00
