# vtk DataFile Version 2.0
Difusion de calor 2D - Tiempo: 1.840000 s
ASCII
DATASET STRUCTURED_POINTS
DIMENSIONS 10 10 1
ORIGIN 0.0 0.0 0.0
SPACING 0.100000 0.100000 1.0
POINT_DATA 100
SCALARS temperatura float 1
LOOKUP_TABLE default
1.00000000e+02
1.00000000e+02
1.00000000e+02
1.00000000e+02
1.00000000e+02
1.00000000e+02
1.00000000e+02
1.00000000e+02
1.00000000e+02
1.00000000e+02
0.00000000e+00
4.85740730e+01
6.68103392e+01
7.43362610e+01
7.71878177e+01
7.71878177e+01
7.43362610e+01
6.68103392e+01
4.85740730e+01
0.00000000e+00
0.00000000e+00
2.74992668e+01
4.43560448e+01
5.33805993e+01
5.72655284e+01
5.72655284e+01
5.33805993e+01
4.43560448e+01
2.74992668e+01
0.00000000e+00
0.00000000e+00
1.70919442e+01
2.97809491e+01
3.76278522e+01
4.13001379e+01
4.13001379e+01
3.76278522e+01
2.97809491e+01
1.70919442e+01
0.00000000e+00
0.00000000e+00
1.11211802e+01
2.01111387e+01
2.61348494e+01
2.91038359e+01
2.91038359e+01
2.61348494e+01
2.01111387e+01
1.11211802e+01
0.00000000e+00
0.00000000e+00
7.31978995e+00
1.34792782e+01
1.77931751e+01
1.99863746e+01
1.99863746e+01
1.77931751e+01
1.34792782e+01
7.31978995e+00
0.00000000e+00
0.00000000e+00
4.71676992e+00
8.76455434e+00
1.16685909e+01
1.31717267e+01
1.31717267e+01
1.16685909e+01
8.76455434e+00
4.71676992e+00
0.00000000e+00
0.00000000e+00
2.81614327e+00
5.25636475e+00
7.02949901e+00
7.95640895e+00
7.95640895e+00
7.02949901e+00
5.25636475e+00
2.81614327e+00
0.00000000e+00
0.00000000e+00
1.31619295e+00
2.46178564e+00
3.29931214e+00
3.73927890e+00
3.73927890e+00
3.29931214e+00
2.46178564e+00
1.31619295e+00
0.00000000e+00
0.00000000e+00
0.00000000e+00
0.00000000e+00
0.00000000e+00
0.00000000e+00
0.00000000e+00
0.00000000e+00
0.00000000e+00
0.00000000e+00
0.00000000e+00
