# vtk DataFile Version 2.0
Difusion de calor 2D - Tiempo: 1.880000 s
ASCII
DATASET STRUCTURED_POINTS
DIMENSIONS 10 10 1
ORIGIN 0.0 0.0 0.0
SPACING 0.100000 0.100000 1.0
POINT_DATA 100
SCALARS temperatura float 1
LOOKUP_TABLE default
1.00000000e+02
1.00000000e+02
1.00000000e+02
1.00000000e+02
1.00000000e+02
1.00000000e+02
1.00000000e+02
1.00000000e+02
1.00000000e+02
1.00000000e+02
0.00000000e+00
4.85791478e+01
6.68198766e+01
7.43491108e+01
7.72024300e+01
7.72024300e+01
7.43491108e+01
6.68198766e+01
4.85791478e+01
0.00000000e+00
0.00000000e+00
2.75087945e+01
4.43739511e+01
5.34047244e+01
5.72929624e+01
5.72929624e+01
5.34047244e+01
4.43739511e+01
2.75087945e+01
0.00000000e+00
0.00000000e+00
1.71047609e+01
2.98050365e+01
3.76603051e+01
4.13370420e+01
4.13370420e+01
3.76603051e+01
2.98050365e+01
1.71047609e+01
0.00000000e+00
0.00000000e+00
1.11357268e+01
2.01384773e+01
2.61716827e+01
2.91457212e+01
2.91457212e+01
2.61716827e+01
2.01384773e+01
1.11357268e+01
0.00000000e+00
0.00000000e+00
7.33430680e+00
1.35065609e+01
1.78299330e+01
2.00281742e+01
2.00281742e+01
1.78299330e+01
1.35065609e+01
7.33430680e+00
0.00000000e+00
0.00000000e+00
4.72951124e+00
8.78850019e+00
1.17008530e+01
1.32084139e+01
1.32084139e+01
1.17008530e+01
8.78850019e+00
4.72951124e+00
0.00000000e+00
0.00000000e+00
2.82558535e+00
5.27411005e+00
7.05340720e+00
7.98359634e+00
7.98359634e+00
7.05340720e+00
5.27411005e+00
2.82558535e+00
0.00000000e+00
0.00000000e+00
1.32121181e+00
2.47121801e+00
3.31202034e+00
3.75373013e+00
3.75373013e+00
3.31202034e+00
2.47121801e+00
1.32121181e+00
0.00000000e+00
0.00000000e+00
0.00000000e+00
0.00000000e+00
0.00000000e+00
0.00000000e+00
0.00000000e+00
0.00000000e+00
0.00000000e+00
0.00000000e+00
0.00000000e+00
