# vtk DataFile Version 2.0
Difusion de calor 2D - Tiempo: 0.320000 s
ASCII
DATASET STRUCTURED_POINTS
DIMENSIONS 10 10 1
ORIGIN 0.0 0.0 0.0
SPACING 0.100000 0.100000 1.0
POINT_DATA 100
SCALARS temperatura float 1
LOOKUP_TABLE default
1.00000000e+02
1.00000000e+02
1.00000000e+02
1.00000000e+02
1.00000000e+02
1.00000000e+02
1.00000000e+02
1.00000000e+02
1.00000000e+02
1.00000000e+02
0.00000000e+00
4.52167406e+01
6.05411808e+01
6.59514725e+01
6.76983976e+01
6.76983976e+01
6.59514725e+01
6.05411808e+01
4.52167406e+01
0.00000000e+00
0.00000000e+00
2.17436981e+01
3.36049838e+01
3.89958270e+01
4.09815349e+01
4.09815349e+01
3.89958270e+01
3.36049838e+01
2.17436981e+01
0.00000000e+00
0.00000000e+00
1.03553251e+01
1.71906530e+01
2.07720092e+01
2.22112687e+01
2.22112687e+01
2.07720092e+01
1.71906530e+01
1.03553251e+01
0.00000000e+00
0.00000000e+00
4.67567795e+00
8.05686240e+00
9.98434469e+00
1.08046560e+01
1.08046560e+01
9.98434469e+00
8.05686240e+00
4.67567795e+00
0.00000000e+00
0.00000000e+00
1.95886853e+00
3.44601618e+00
4.33925136e+00
4.73424045e+00
4.73424045e+00
4.33925136e+00
3.44601618e+00
1.95886853e+00
0.00000000e+00
0.00000000e+00
7.54562935e-01
1.34380715e+00
1.70986142e+00
1.87601890e+00
1.87601890e+00
1.70986142e+00
1.34380715e+00
7.54562935e-01
0.00000000e+00
0.00000000e+00
2.65304439e-01
4.76120379e-01
6.10053467e-01
6.71960209e-01
6.71960209e-01
6.10053467e-01
4.76120379e-01
2.65304439e-01
0.00000000e+00
0.00000000e+00
7.96845299e-02
1.43675567e-01
1.84914237e-01
2.04203495e-01
2.04203495e-01
1.84914237e-01
1.43675567e-01
7.96845299e-02
0.00000000e+00
0.00000000e+00
0.00000000e+00
0.00000000e+00
0.00000000e+00
0.00000000e+00
0.00000000e+00
0.00000000e+00
0.00000000e+00
0.00000000e+00
0.00000000e+00
