# vtk DataFile Version 2.0
Difusion de calor 2D - Tiempo: 1.000000 s
ASCII
DATASET STRUCTURED_POINTS
DIMENSIONS 10 10 1
ORIGIN 0.0 0.0 0.0
SPACING 0.100000 0.100000 1.0
POINT_DATA 100
SCALARS temperatura float 1
LOOKUP_TABLE default
1.00000000e+02
1.00000000e+02
1.00000000e+02
1.00000000e+02
1.00000000e+02
1.00000000e+02
1.00000000e+02
1.00000000e+02
1.00000000e+02
1.00000000e+02
0.00000000e+00
4.81940478e+01
6.60961354e+01
7.33740323e+01
7.60936230e+01
7.60936230e+01
7.33740323e+01
6.60961354e+01
4.81940478e+01
0.00000000e+00
0.00000000e+00
2.67915769e+01
4.30260414e+01
5.15887189e+01
5.52278983e+01
5.52278983e+01
5.15887189e+01
4.30260414e+01
2.67915769e+01
0.00000000e+00
0.00000000e+00
1.61519015e+01
2.80142712e+01
3.52476510e+01
3.85935007e+01
3.85935007e+01
3.52476510e+01
2.80142712e+01
1.61519015e+01
0.00000000e+00
0.00000000e+00
1.00708538e+01
1.81371976e+01
2.34754073e+01
2.60796606e+01
2.60796606e+01
2.34754073e+01
1.81371976e+01
1.00708538e+01
0.00000000e+00
0.00000000e+00
6.28921822e+00
1.15424631e+01
1.51837513e+01
1.70190772e+01
1.70190772e+01
1.51837513e+01
1.15424631e+01
6.28921822e+00
0.00000000e+00
0.00000000e+00
3.82674814e+00
7.09188292e+00
9.41504100e+00
1.06091098e+01
1.06091098e+01
9.41504100e+00
7.09188292e+00
3.82674814e+00
0.00000000e+00
0.00000000e+00
2.16533529e+00
4.03326203e+00
5.38164198e+00
6.08255349e+00
6.08255349e+00
5.38164198e+00
4.03326203e+00
2.16533529e+00
0.00000000e+00
0.00000000e+00
9.73294960e-01
1.81735669e+00
2.43108836e+00
2.75198087e+00
2.75198087e+00
2.43108836e+00
1.81735669e+00
9.73294960e-01
0.00000000e+00
0.00000000e+00
0.00000000e+00
0.00000000e+00
0.00000000e+00
0.00000000e+00
0.00000000e+00
0.00000000e+00
0.00000000e+00
0.00000000e+00
0.00000000e+00
