# vtk DataFile Version 2.0
Difusion de calor 2D - Tiempo: 1.820000 s
ASCII
DATASET STRUCTURED_POINTS
DIMENSIONS 10 10 1
ORIGIN 0.0 0.0 0.0
SPACING 0.100000 0.100000 1.0
POINT_DATA 100
SCALARS temperatura float 1
LOOKUP_TABLE default
1.00000000e+02
1.00000000e+02
1.00000000e+02
1.00000000e+02
1.00000000e+02
1.00000000e+02
1.00000000e+02
1.00000000e+02
1.00000000e+02
1.00000000e+02
0.00000000e+00
4.85713443e+01
6.68052110e+01
7.43293518e+01
7.71799609e+01
7.71799609e+01
7.43293518e+01
6.68052110e+01
4.85713443e+01
0.00000000e+00
0.00000000e+00
2.74941444e+01
4.43464179e+01
5.33676289e+01
5.72507790e+01
5.72507790e+01
5.33676289e+01
4.43464179e+01
2.74941444e+01
0.00000000e+00
0.00000000e+00
1.70850547e+01
2.97680011e+01
3.76104074e+01
4.12803005e+01
4.12803005e+01
3.76104074e+01
2.97680011e+01
1.70850547e+01
0.00000000e+00
0.00000000e+00
1.11133625e+01
2.00964461e+01
2.61150542e+01
2.90813256e+01
2.90813256e+01
2.61150542e+01
2.00964461e+01
1.11133625e+01
0.00000000e+00
0.00000000e+00
7.31198991e+00
1.34646189e+01
1.77734247e+01
1.99639153e+01
1.99639153e+01
1.77734247e+01
1.34646189e+01
7.31198991e+00
0.00000000e+00
0.00000000e+00
4.70992531e+00
8.75169069e+00
1.16512597e+01
1.31520185e+01
1.31520185e+01
1.16512597e+01
8.75169069e+00
4.70992531e+00
0.00000000e+00
0.00000000e+00
2.81107188e+00
5.24683364e+00
7.01665778e+00
7.94180645e+00
7.94180645e+00
7.01665778e+00
5.24683364e+00
2.81107188e+00
0.00000000e+00
0.00000000e+00
1.31349759e+00
2.45672002e+00
3.29248725e+00
3.73151792e+00
3.73151792e+00
3.29248725e+00
2.45672002e+00
1.31349759e+00
0.00000000e+00
0.00000000e+00
0.00000000e+00
0.00000000e+00
0.00000000e+00
0.00000000e+00
0.00000000e+00
0.00000000e+00
0.00000000e+00
0.00000000e+00
0.00000000e+00
