# vtk DataFile Version 2.0
Difusion de calor 2D - Tiempo: 1.340000 s
ASCII
DATASET STRUCTURED_POINTS
DIMENSIONS 10 10 1
ORIGIN 0.0 0.0 0.0
SPACING 0.100000 0.100000 1.0
POINT_DATA 100
SCALARS temperatura float 1
LOOKUP_TABLE default
1.00000000e+02
1.00000000e+02
1.00000000e+02
1.00000000e+02
1.00000000e+02
1.00000000e+02
1.00000000e+02
1.00000000e+02
1.00000000e+02
1.00000000e+02
0.00000000e+00
4.84432552e+01
6.65644823e+01
7.40050192e+01
7.68111438e+01
7.68111438e+01
7.40050192e+01
6.65644823e+01
4.84432552e+01
0.00000000e+00
0.00000000e+00
2.72542430e+01
4.38955511e+01
5.27601784e+01
5.65600121e+01
5.65600121e+01
5.27601784e+01
4.38955511e+01
2.72542430e+01
0.00000000e+00
0.00000000e+00
1.67635437e+01
2.91637585e+01
3.67963143e+01
4.03545485e+01
4.03545485e+01
3.67963143e+01
2.91637585e+01
1.67635437e+01
0.00000000e+00
0.00000000e+00
1.07501333e+01
1.94137991e+01
2.51953272e+01
2.80354514e+01
2.80354514e+01
2.51953272e+01
1.94137991e+01
1.07501333e+01
0.00000000e+00
0.00000000e+00
6.95129112e+00
1.27867275e+01
1.68601049e+01
1.89253271e+01
1.89253271e+01
1.68601049e+01
1.27867275e+01
6.95129112e+00
0.00000000e+00
0.00000000e+00
4.39482143e+00
8.15948962e+00
1.08533901e+01
1.22447153e+01
1.22447153e+01
1.08533901e+01
8.15948962e+00
4.39482143e+00
0.00000000e+00
0.00000000e+00
2.57845649e+00
4.80966009e+00
6.42765603e+00
7.27201879e+00
7.27201879e+00
6.42765603e+00
4.80966009e+00
2.57845649e+00
0.00000000e+00
0.00000000e+00
1.19016403e+00
2.22492895e+00
2.98019629e+00
3.37639397e+00
3.37639397e+00
2.98019629e+00
2.22492895e+00
1.19016403e+00
0.00000000e+00
0.00000000e+00
0.00000000e+00
0.00000000e+00
0.00000000e+00
0.00000000e+00
0.00000000e+00
0.00000000e+00
0.00000000e+00
0.00000000e+00
0.00000000e+00
