# vtk DataFile Version 2.0
Difusion de calor 2D - Tiempo: 0.880000 s
ASCII
DATASET STRUCTURED_POINTS
DIMENSIONS 10 10 1
ORIGIN 0.0 0.0 0.0
SPACING 0.100000 0.100000 1.0
POINT_DATA 100
SCALARS temperatura float 1
LOOKUP_TABLE default
1.00000000e+02
1.00000000e+02
1.00000000e+02
1.00000000e+02
1.00000000e+02
1.00000000e+02
1.00000000e+02
1.00000000e+02
1.00000000e+02
1.00000000e+02
0.00000000e+00
4.80348375e+01
6.57969481e+01
7.29709842e+01
7.56353277e+01
7.56353277e+01
7.29709842e+01
6.57969481e+01
4.80348375e+01
0.00000000e+00
0.00000000e+00
2.64992436e+01
4.24766897e+01
5.08486638e+01
5.43864012e+01
5.43864012e+01
5.08486638e+01
4.24766897e+01
2.64992436e+01
0.00000000e+00
0.00000000e+00
1.57721351e+01
2.73006152e+01
3.42862542e+01
3.75003219e+01
3.75003219e+01
3.42862542e+01
2.73006152e+01
1.57721351e+01
0.00000000e+00
0.00000000e+00
9.65843884e+00
1.73621886e+01
2.24313590e+01
2.48925008e+01
2.48925008e+01
2.24313590e+01
1.73621886e+01
9.65843884e+00
0.00000000e+00
0.00000000e+00
5.89722657e+00
1.08058332e+01
1.41914051e+01
1.58907063e+01
1.58907063e+01
1.41914051e+01
1.08058332e+01
5.89722657e+00
0.00000000e+00
0.00000000e+00
3.49869640e+00
6.47540869e+00
8.58456156e+00
9.66479325e+00
9.66479325e+00
8.58456156e+00
6.47540869e+00
3.49869640e+00
0.00000000e+00
0.00000000e+00
1.93181197e+00
3.59442536e+00
4.79046577e+00
5.41034231e+00
5.41034231e+00
4.79046577e+00
3.59442536e+00
1.93181197e+00
0.00000000e+00
0.00000000e+00
8.52471345e-01
1.59030512e+00
2.12521714e+00
2.40418259e+00
2.40418259e+00
2.12521714e+00
1.59030512e+00
8.52471345e-01
0.00000000e+00
0.00000000e+00
0.00000000e+00
0.00000000e+00
0.00000000e+00
0.00000000e+00
0.00000000e+00
0.00000000e+00
0.00000000e+00
0.00000000e+00
0.00000000e+00
