# vtk DataFile Version 2.0
Difusion de calor 2D - Tiempo: 0.280000 s
ASCII
DATASET STRUCTURED_POINTS
DIMENSIONS 10 10 1
ORIGIN 0.0 0.0 0.0
SPACING 0.100000 0.100000 1.0
POINT_DATA 100
SCALARS temperatura float 1
LOOKUP_TABLE default
1.00000000e+02
1.00000000e+02
1.00000000e+02
1.00000000e+02
1.00000000e+02
1.00000000e+02
1.00000000e+02
1.00000000e+02
1.00000000e+02
1.00000000e+02
0.00000000e+00
4.45715552e+01
5.93594858e+01
6.44055824e+01
6.59741023e+01
6.59741023e+01
6.44055824e+01
5.93594858e+01
4.45715552e+01
0.00000000e+00
0.00000000e+00
2.07607852e+01
3.18046468e+01
3.66405262e+01
3.83543447e+01
3.83543447e+01
3.66405262e+01
3.18046468e+01
2.07607852e+01
0.00000000e+00
0.00000000e+00
9.40674160e+00
1.54530992e+01
1.84987090e+01
1.96754491e+01
1.96754491e+01
1.84987090e+01
1.54530992e+01
9.40674160e+00
0.00000000e+00
0.00000000e+00
3.97884527e+00
6.78037071e+00
8.31415419e+00
8.94151221e+00
8.94151221e+00
8.31415419e+00
6.78037071e+00
3.97884527e+00
0.00000000e+00
0.00000000e+00
1.54216032e+00
2.68261991e+00
3.34033354e+00
3.61986757e+00
3.61986757e+00
3.34033354e+00
2.68261991e+00
1.54216032e+00
0.00000000e+00
0.00000000e+00
5.44302250e-01
9.58589665e-01
1.20575833e+00
1.31362327e+00
1.31362327e+00
1.20575833e+00
9.58589665e-01
5.44302250e-01
0.00000000e+00
0.00000000e+00
1.74333045e-01
3.09440405e-01
3.91915395e-01
4.28584805e-01
4.28584805e-01
3.91915395e-01
3.09440405e-01
1.74333045e-01
0.00000000e+00
0.00000000e+00
4.80231647e-02
8.56612352e-02
1.08984111e-01
1.19484758e-01
1.19484758e-01
1.08984111e-01
8.56612352e-02
4.80231647e-02
0.00000000e+00
0.00000000e+00
0.00000000e+00
0.00000000e+00
0.00000000e+00
0.00000000e+00
0.00000000e+00
0.00000000e+00
0.00000000e+00
0.00000000e+00
0.00000000e+00
