# vtk DataFile Version 2.0
Difusion de calor 2D - Tiempo: 0.640000 s
ASCII
DATASET STRUCTURED_POINTS
DIMENSIONS 10 10 1
ORIGIN 0.0 0.0 0.0
SPACING 0.100000 0.100000 1.0
POINT_DATA 100
SCALARS temperatura float 1
LOOKUP_TABLE default
1.00000000e+02
1.00000000e+02
1.00000000e+02
1.00000000e+02
1.00000000e+02
1.00000000e+02
1.00000000e+02
1.00000000e+02
1.00000000e+02
1.00000000e+02
0.00000000e+00
4.74758144e+01
6.47469699e+01
7.15573355e+01
7.40285154e+01
7.40285154e+01
7.15573355e+01
6.47469699e+01
4.74758144e+01
0.00000000e+00
0.00000000e+00
2.54936855e+01
4.05880072e+01
4.83058082e+01
5.14960783e+01
5.14960783e+01
4.83058082e+01
4.05880072e+01
2.54936855e+01
0.00000000e+00
0.00000000e+00
1.45081018e+01
2.49264418e+01
3.10897330e+01
3.38670002e+01
3.38670002e+01
3.10897330e+01
2.49264418e+01
1.45081018e+01
0.00000000e+00
0.00000000e+00
8.34344613e+00
1.48922844e+01
1.91059237e+01
2.11126308e+01
2.11126308e+01
1.91059237e+01
1.48922844e+01
8.34344613e+00
0.00000000e+00
0.00000000e+00
4.70755512e+00
8.57129846e+00
1.11828409e+01
1.24709898e+01
1.24709898e+01
1.11828409e+01
8.57129846e+00
4.70755512e+00
0.00000000e+00
0.00000000e+00
2.55208214e+00
4.69738895e+00
6.19062473e+00
6.94368334e+00
6.94368334e+00
6.19062473e+00
4.69738895e+00
2.55208214e+00
0.00000000e+00
0.00000000e+00
1.28737392e+00
2.38397262e+00
3.16069131e+00
3.55782092e+00
3.55782092e+00
3.16069131e+00
2.38397262e+00
1.28737392e+00
0.00000000e+00
0.00000000e+00
5.29247043e-01
9.83187423e-01
1.30777864e+00
1.47501840e+00
1.47501840e+00
1.30777864e+00
9.83187423e-01
5.29247043e-01
0.00000000e+00
0.00000000e+00
0.00000000e+00
0.00000000e+00
0.00000000e+00
0.00000000e+00
0.00000000e+00
0.00000000e+00
0.00000000e+00
0.00000000e+00
0.00000000e+00
