# vtk DataFile Version 2.0
Difusion de calor 2D - Tiempo: 0.400000 s
ASCII
DATASET STRUCTURED_POINTS
DIMENSIONS 10 10 1
ORIGIN 0.0 0.0 0.0
SPACING 0.100000 0.100000 1.0
POINT_DATA 100
SCALARS temperatura float 1
LOOKUP_TABLE default
1.00000000e+02
1.00000000e+02
1.00000000e+02
1.00000000e+02
1.00000000e+02
1.00000000e+02
1.00000000e+02
1.00000000e+02
1.00000000e+02
1.00000000e+02
0.00000000e+00
4.61278746e+01
6.22267755e+01
6.81819041e+01
7.02049359e+01
7.02049359e+01
6.81819041e+01
6.22267755e+01
4.61278746e+01
0.00000000e+00
0.00000000e+00
2.31975549e+01
3.62947538e+01
4.25552250e+01
4.49817076e+01
4.49817076e+01
4.25552250e+01
3.62947538e+01
2.31975549e+01
0.00000000e+00
0.00000000e+00
1.18632183e+01
1.99806167e+01
2.44643279e+01
2.63610669e+01
2.63610669e+01
2.44643279e+01
1.99806167e+01
1.18632183e+01
0.00000000e+00
0.00000000e+00
5.89130550e+00
1.03062903e+01
1.29616426e+01
1.41510921e+01
1.41510921e+01
1.29616426e+01
1.03062903e+01
5.89130550e+00
0.00000000e+00
0.00000000e+00
2.76998264e+00
4.94709598e+00
6.32631300e+00
6.96785979e+00
6.96785979e+00
6.32631300e+00
4.94709598e+00
2.76998264e+00
0.00000000e+00
0.00000000e+00
1.21683298e+00
2.19941024e+00
2.84263328e+00
3.14946713e+00
3.14946713e+00
2.84263328e+00
2.19941024e+00
1.21683298e+00
0.00000000e+00
0.00000000e+00
4.92241928e-01
8.96206417e-01
1.16630560e+00
1.29735187e+00
1.29735187e+00
1.16630560e+00
8.96206417e-01
4.92241928e-01
0.00000000e+00
0.00000000e+00
1.67792617e-01
3.06790644e-01
4.00927557e-01
4.47085707e-01
4.47085707e-01
4.00927557e-01
3.06790644e-01
1.67792617e-01
0.00000000e+00
0.00000000e+00
0.00000000e+00
0.00000000e+00
0.00000000e+00
0.00000000e+00
0.00000000e+00
0.00000000e+00
0.00000000e+00
0.00000000e+00
0.00000000e+00
