# vtk DataFile Version 2.0
Difusion de calor 2D - Tiempo: 1.580000 s
ASCII
DATASET STRUCTURED_POINTS
DIMENSIONS 10 10 1
ORIGIN 0.0 0.0 0.0
SPACING 0.100000 0.100000 1.0
POINT_DATA 100
SCALARS temperatura float 1
LOOKUP_TABLE default
1.00000000e+02
1.00000000e+02
1.00000000e+02
1.00000000e+02
1.00000000e+02
1.00000000e+02
1.00000000e+02
1.00000000e+02
1.00000000e+02
1.00000000e+02
0.00000000e+00
4.85257270e+01
6.67194785e+01
7.42138448e+01
7.70486112e+01
7.70486112e+01
7.42138448e+01
6.67194785e+01
4.85257270e+01
0.00000000e+00
0.00000000e+00
2.74085737e+01
4.41855977e+01
5.31509565e+01
5.70043882e+01
5.70043882e+01
5.31509565e+01
4.41855977e+01
2.74085737e+01
0.00000000e+00
0.00000000e+00
1.69700997e+01
2.95519564e+01
3.73193312e+01
4.09493008e+01
4.09493008e+01
3.73193312e+01
2.95519564e+01
1.69700997e+01
0.00000000e+00
0.00000000e+00
1.09831062e+01
1.98516445e+01
2.57852339e+01
2.87062679e+01
2.87062679e+01
2.57852339e+01
1.98516445e+01
1.09831062e+01
0.00000000e+00
0.00000000e+00
7.18222925e+00
1.32207486e+01
1.74448592e+01
1.95902845e+01
1.95902845e+01
1.74448592e+01
1.32207486e+01
7.18222925e+00
0.00000000e+00
0.00000000e+00
4.59622511e+00
8.53800425e+00
1.13633608e+01
1.28246320e+01
1.28246320e+01
1.13633608e+01
8.53800425e+00
4.59622511e+00
0.00000000e+00
0.00000000e+00
2.72692816e+00
5.08869520e+00
6.80359848e+00
7.69952437e+00
7.69952437e+00
6.80359848e+00
5.08869520e+00
2.72692816e+00
0.00000000e+00
0.00000000e+00
1.26881165e+00
2.37273794e+00
3.17933852e+00
3.60284995e+00
3.60284995e+00
3.17933852e+00
2.37273794e+00
1.26881165e+00
0.00000000e+00
0.00000000e+00
0.00000000e+00
0.00000000e+00
0.00000000e+00
0.00000000e+00
0.00000000e+00
0.00000000e+00
0.00000000e+00
0.00000000e+00
0.00000000e+00
