# vtk DataFile Version 2.0
Difusion de calor 2D - Tiempo: 0.920000 s
ASCII
DATASET STRUCTURED_POINTS
DIMENSIONS 10 10 1
ORIGIN 0.0 0.0 0.0
SPACING 0.100000 0.100000 1.0
POINT_DATA 100
SCALARS temperatura float 1
LOOKUP_TABLE default
1.00000000e+02
1.00000000e+02
1.00000000e+02
1.00000000e+02
1.00000000e+02
1.00000000e+02
1.00000000e+02
1.00000000e+02
1.00000000e+02
1.00000000e+02
0.00000000e+00
4.80940617e+01
6.59082382e+01
7.31209022e+01
7.58057913e+01
7.58057913e+01
7.31209022e+01
6.59082382e+01
4.80940617e+01
0.00000000e+00
0.00000000e+00
2.66076811e+01
4.26804583e+01
5.11231589e+01
5.46985146e+01
5.46985146e+01
5.11231589e+01
4.26804583e+01
2.66076811e+01
0.00000000e+00
0.00000000e+00
1.59123709e+01
2.75641371e+01
3.46412426e+01
3.79039598e+01
3.79039598e+01
3.46412426e+01
2.75641371e+01
1.59123709e+01
0.00000000e+00
0.00000000e+00
9.80983983e+00
1.76466914e+01
2.28146106e+01
2.53282753e+01
2.53282753e+01
2.28146106e+01
1.76466914e+01
9.80983983e+00
0.00000000e+00
0.00000000e+00
6.04016942e+00
1.10744421e+01
1.45532461e+01
1.63021359e+01
1.63021359e+01
1.45532461e+01
1.10744421e+01
6.04016942e+00
0.00000000e+00
0.00000000e+00
3.61751474e+00
6.69868438e+00
8.88533450e+00
1.00067858e+01
1.00067858e+01
8.88533450e+00
6.69868438e+00
3.61751474e+00
0.00000000e+00
0.00000000e+00
2.01589320e+00
3.75242534e+00
5.00330632e+00
5.65235172e+00
5.65235172e+00
5.00330632e+00
3.75242534e+00
2.01589320e+00
0.00000000e+00
0.00000000e+00
8.95797368e-01
1.67172056e+00
2.23489126e+00
2.52888707e+00
2.52888707e+00
2.23489126e+00
1.67172056e+00
8.95797368e-01
0.00000000e+00
0.00000000e+00
0.00000000e+00
0.00000000e+00
0.00000000e+00
0.00000000e+00
0.00000000e+00
0.00000000e+00
0.00000000e+00
0.00000000e+00
0.00000000e+00
