# vtk DataFile Version 2.0
Difusion de calor 2D - Tiempo: 0.380000 s
ASCII
DATASET STRUCTURED_POINTS
DIMENSIONS 10 10 1
ORIGIN 0.0 0.0 0.0
SPACING 0.100000 0.100000 1.0
POINT_DATA 100
SCALARS temperatura float 1
LOOKUP_TABLE default
1.00000000e+02
1.00000000e+02
1.00000000e+02
1.00000000e+02
1.00000000e+02
1.00000000e+02
1.00000000e+02
1.00000000e+02
1.00000000e+02
1.00000000e+02
0.00000000e+00
4.59356900e+01
6.18697611e+01
6.77072540e+01
6.96698729e+01
6.96698729e+01
6.77072540e+01
6.18697611e+01
4.59356900e+01
0.00000000e+00
0.00000000e+00
2.28844151e+01
3.57130433e+01
4.17818383e+01
4.41098826e+01
4.41098826e+01
4.17818383e+01
3.57130433e+01
2.28844151e+01
0.00000000e+00
0.00000000e+00
1.15277199e+01
1.93573678e+01
2.36357106e+01
2.54269780e+01
2.54269780e+01
2.36357106e+01
1.93573678e+01
1.15277199e+01
0.00000000e+00
0.00000000e+00
5.60937714e+00
9.78255440e+00
1.22653246e+01
1.33661391e+01
1.33661391e+01
1.22653246e+01
9.78255440e+00
5.60937714e+00
0.00000000e+00
0.00000000e+00
2.57263134e+00
4.58047607e+00
5.83888097e+00
6.41837982e+00
6.41837982e+00
5.83888097e+00
4.58047607e+00
2.57263134e+00
0.00000000e+00
0.00000000e+00
1.09839309e+00
1.97938304e+00
2.55009886e+00
2.81969311e+00
2.81969311e+00
2.55009886e+00
1.97938304e+00
1.09839309e+00
0.00000000e+00
0.00000000e+00
4.31040163e-01
7.82510617e-01
1.01514194e+00
1.12694450e+00
1.12694450e+00
1.01514194e+00
7.82510617e-01
4.31040163e-01
0.00000000e+00
0.00000000e+00
1.43016619e-01
2.60763578e-01
3.39732249e-01
3.78099806e-01
3.78099806e-01
3.39732249e-01
2.60763578e-01
1.43016619e-01
0.00000000e+00
0.00000000e+00
0.00000000e+00
0.00000000e+00
0.00000000e+00
0.00000000e+00
0.00000000e+00
0.00000000e+00
0.00000000e+00
0.00000000e+00
0.00000000e+00
