# vtk DataFile Version 2.0
Difusion de calor 2D - Tiempo: 0.520000 s
ASCII
DATASET STRUCTURED_POINTS
DIMENSIONS 10 10 1
ORIGIN 0.0 0.0 0.0
SPACING 0.100000 0.100000 1.0
POINT_DATA 100
SCALARS temperatura float 1
LOOKUP_TABLE default
1.00000000e+02
1.00000000e+02
1.00000000e+02
1.00000000e+02
1.00000000e+02
1.00000000e+02
1.00000000e+02
1.00000000e+02
1.00000000e+02
1.00000000e+02
0.00000000e+00
4.69661048e+01
6.37913184e+01
7.02732944e+01
7.25709575e+01
7.25709575e+01
7.02732944e+01
6.37913184e+01
4.69661048e+01
0.00000000e+00
0.00000000e+00
2.46045593e+01
3.89209795e+01
4.60659261e+01
4.89535020e+01
4.89535020e+01
4.60659261e+01
3.89209795e+01
2.46045593e+01
0.00000000e+00
0.00000000e+00
1.34447820e+01
2.29327980e+01
2.84109671e+01
3.08262079e+01
3.08262079e+01
2.84109671e+01
2.29327980e+01
1.34447820e+01
0.00000000e+00
0.00000000e+00
7.30864013e+00
1.29520766e+01
1.64989187e+01
1.81532687e+01
1.81532687e+01
1.64989187e+01
1.29520766e+01
7.30864013e+00
0.00000000e+00
0.00000000e+00
3.84293666e+00
6.95015833e+00
9.00451982e+00
9.99822289e+00
9.99822289e+00
9.00451982e+00
6.95015833e+00
3.84293666e+00
0.00000000e+00
0.00000000e+00
1.92040253e+00
3.51298393e+00
4.59911261e+00
5.13702220e+00
5.13702220e+00
4.59911261e+00
3.51298393e+00
1.92040253e+00
0.00000000e+00
0.00000000e+00
8.90329722e-01
1.63949916e+00
2.16030694e+00
2.42218565e+00
2.42218565e+00
2.16030694e+00
1.63949916e+00
8.90329722e-01
0.00000000e+00
0.00000000e+00
3.41433156e-01
6.31024760e-01
8.34554414e-01
9.37809933e-01
9.37809933e-01
8.34554414e-01
6.31024760e-01
3.41433156e-01
0.00000000e+00
0.00000000e+00
0.00000000e+00
0.00000000e+00
0.00000000e+00
0.00000000e+00
0.00000000e+00
0.00000000e+00
0.00000000e+00
0.00000000e+00
0.00000000e+00
