# vtk DataFile Version 2.0
Difusion de calor 2D - Tiempo: 1.700000 s
ASCII
DATASET STRUCTURED_POINTS
DIMENSIONS 10 10 1
ORIGIN 0.0 0.0 0.0
SPACING 0.100000 0.100000 1.0
POINT_DATA 100
SCALARS temperatura float 1
LOOKUP_TABLE default
1.00000000e+02
1.00000000e+02
1.00000000e+02
1.00000000e+02
1.00000000e+02
1.00000000e+02
1.00000000e+02
1.00000000e+02
1.00000000e+02
1.00000000e+02
0.00000000e+00
4.85518596e+01
6.67685917e+01
7.42800148e+01
7.71238569e+01
7.71238569e+01
7.42800148e+01
6.67685917e+01
4.85518596e+01
0.00000000e+00
0.00000000e+00
2.74575786e+01
4.42776966e+01
5.32750410e+01
5.71454919e+01
5.71454919e+01
5.32750410e+01
4.42776966e+01
2.74575786e+01
0.00000000e+00
0.00000000e+00
1.70359001e+01
2.96756206e+01
3.74859435e+01
4.11387653e+01
4.11387653e+01
3.74859435e+01
2.96756206e+01
1.70359001e+01
0.00000000e+00
0.00000000e+00
1.10576197e+01
1.99916841e+01
2.59739087e+01
2.89208209e+01
2.89208209e+01
2.59739087e+01
1.99916841e+01
1.10576197e+01
0.00000000e+00
0.00000000e+00
7.25641095e+00
1.33601646e+01
1.76326938e+01
1.98038821e+01
1.98038821e+01
1.76326938e+01
1.33601646e+01
7.25641095e+00
0.00000000e+00
0.00000000e+00
4.66118529e+00
8.66008943e+00
1.15278457e+01
1.30116772e+01
1.30116772e+01
1.15278457e+01
8.66008943e+00
4.66118529e+00
0.00000000e+00
0.00000000e+00
2.77497756e+00
5.17899852e+00
6.92526378e+00
7.83787703e+00
7.83787703e+00
6.92526378e+00
5.17899852e+00
2.77497756e+00
0.00000000e+00
0.00000000e+00
1.29432063e+00
2.42067913e+00
3.24392949e+00
3.67630008e+00
3.67630008e+00
3.24392949e+00
2.42067913e+00
1.29432063e+00
0.00000000e+00
0.00000000e+00
0.00000000e+00
0.00000000e+00
0.00000000e+00
0.00000000e+00
0.00000000e+00
0.00000000e+00
0.00000000e+00
0.00000000e+00
0.00000000e+00
