# vtk DataFile Version 2.0
Difusion de calor 2D - Tiempo: 0.460000 s
ASCII
DATASET STRUCTURED_POINTS
DIMENSIONS 10 10 1
ORIGIN 0.0 0.0 0.0
SPACING 0.100000 0.100000 1.0
POINT_DATA 100
SCALARS temperatura float 1
LOOKUP_TABLE default
1.00000000e+02
1.00000000e+02
1.00000000e+02
1.00000000e+02
1.00000000e+02
1.00000000e+02
1.00000000e+02
1.00000000e+02
1.00000000e+02
1.00000000e+02
0.00000000e+00
4.66033152e+01
6.31128626e+01
6.93643606e+01
7.15411705e+01
7.15411705e+01
6.93643606e+01
6.31128626e+01
4.66033152e+01
0.00000000e+00
0.00000000e+00
2.39873021e+01
3.77666363e+01
4.45194326e+01
4.72013779e+01
4.72013779e+01
4.45194326e+01
3.77666363e+01
2.39873021e+01
0.00000000e+00
0.00000000e+00
1.27358956e+01
2.16070872e+01
2.66348738e+01
2.88139434e+01
2.88139434e+01
2.66348738e+01
2.16070872e+01
1.27358956e+01
0.00000000e+00
0.00000000e+00
6.65534574e+00
1.17303178e+01
1.48620738e+01
1.62987546e+01
1.62987546e+01
1.48620738e+01
1.17303178e+01
6.65534574e+00
0.00000000e+00
0.00000000e+00
3.33191891e+00
5.99446673e+00
7.72411955e+00
8.54754071e+00
8.54754071e+00
7.72411955e+00
5.99446673e+00
3.33191891e+00
0.00000000e+00
0.00000000e+00
1.57330736e+00
2.86384744e+00
3.72941057e+00
4.15164785e+00
4.15164785e+00
3.72941057e+00
2.86384744e+00
1.57330736e+00
0.00000000e+00
0.00000000e+00
6.87167048e-01
1.25954001e+00
1.65123674e+00
1.84540248e+00
1.84540248e+00
1.65123674e+00
1.25954001e+00
6.87167048e-01
0.00000000e+00
0.00000000e+00
2.50468551e-01
4.60899147e-01
6.06617122e-01
6.79552099e-01
6.79552099e-01
6.06617122e-01
4.60899147e-01
2.50468551e-01
0.00000000e+00
0.00000000e+00
0.00000000e+00
0.00000000e+00
0.00000000e+00
0.00000000e+00
0.00000000e+00
0.00000000e+00
0.00000000e+00
0.00000000e+00
0.00000000e+00
