# vtk DataFile Version 2.0
Difusion de calor 2D - Tiempo: 0.040000 s
ASCII
DATASET STRUCTURED_POINTS
DIMENSIONS 10 10 1
ORIGIN 0.0 0.0 0.0
SPACING 0.100000 0.100000 1.0
POINT_DATA 100
SCALARS temperatura float 1
LOOKUP_TABLE default
1.00000000e+02
1.00000000e+02
1.00000000e+02
1.00000000e+02
1.00000000e+02
1.00000000e+02
1.00000000e+02
1.00000000e+02
1.00000000e+02
1.00000000e+02
0.00000000e+00
2.41394693e+01
2.76984547e+01
2.80853609e+01
2.81212684e+01
2.81212684e+01
2.80853609e+01
2.76984547e+01
2.41394693e+01
0.00000000e+00
0.00000000e+00
3.97861689e+00
4.78516000e+00
4.89497467e+00
4.90572711e+00
4.90572711e+00
4.89497467e+00
4.78516000e+00
3.97861689e+00
0.00000000e+00
0.00000000e+00
4.66467556e-01
5.82115556e-01
5.98733333e-01
6.00568444e-01
6.00568444e-01
5.98733333e-01
5.82115556e-01
4.66467556e-01
0.00000000e+00
0.00000000e+00
4.51662222e-02
5.69137778e-02
5.87911111e-02
5.89133333e-02
5.89133333e-02
5.87911111e-02
5.69137778e-02
4.51662222e-02
0.00000000e+00
0.00000000e+00
3.46666667e-03
4.44444444e-03
4.54000000e-03
4.55555556e-03
4.55555556e-03
4.54000000e-03
4.44444444e-03
3.46666667e-03
0.00000000e+00
0.00000000e+00
2.20444444e-04
2.61777778e-04
2.71111111e-04
2.71111111e-04
2.71111111e-04
2.71111111e-04
2.61777778e-04
2.20444444e-04
0.00000000e+00
0.00000000e+00
8.44444444e-06
1.15555556e-05
1.15555556e-05
1.15555556e-05
1.15555556e-05
1.15555556e-05
1.15555556e-05
8.44444444e-06
0.00000000e+00
0.00000000e+00
4.44444444e-07
4.44444444e-07
4.44444444e-07
4.44444444e-07
4.44444444e-07
4.44444444e-07
4.44444444e-07
4.44444444e-07
0.00000000e+00
0.00000000e+00
0.00000000e+00
0.00000000e+00
0.00000000e+00
0.00000000e+00
0.00000000e+00
0.00000000e+00
0.00000000e+00
0.00000000e+00
0.00000000e+00
