# vtk DataFile Version 2.0
Difusion de calor 2D - Tiempo: 0.560000 s
ASCII
DATASET STRUCTURED_POINTS
DIMENSIONS 10 10 1
ORIGIN 0.0 0.0 0.0
SPACING 0.100000 0.100000 1.0
POINT_DATA 100
SCALARS temperatura float 1
LOOKUP_TABLE default
1.00000000e+02
1.00000000e+02
1.00000000e+02
1.00000000e+02
1.00000000e+02
1.00000000e+02
1.00000000e+02
1.00000000e+02
1.00000000e+02
1.00000000e+02
0.00000000e+00
4.71625092e+01
6.41592757e+01
7.07672630e+01
7.31313586e+01
7.31313586e+01
7.07672630e+01
6.41592757e+01
4.71625092e+01
0.00000000e+00
0.00000000e+00
2.49440976e+01
3.95570945e+01
4.69198873e+01
4.99223110e+01
4.99223110e+01
4.69198873e+01
3.95570945e+01
2.49440976e+01
0.00000000e+00
0.00000000e+00
1.38449048e+01
2.36824178e+01
2.94173067e+01
3.19678900e+01
3.19678900e+01
2.94173067e+01
2.36824178e+01
1.38449048e+01
0.00000000e+00
0.00000000e+00
7.69031095e+00
1.36671289e+01
1.74588553e+01
1.92423092e+01
1.92423092e+01
1.74588553e+01
1.36671289e+01
7.69031095e+00
0.00000000e+00
0.00000000e+00
4.15411784e+00
7.53315145e+00
9.78717359e+00
1.08861393e+01
1.08861393e+01
9.78717359e+00
7.53315145e+00
4.15411784e+00
0.00000000e+00
0.00000000e+00
2.14162947e+00
3.92745048e+00
5.15552566e+00
5.76827127e+00
5.76827127e+00
5.15552566e+00
3.92745048e+00
2.14162947e+00
0.00000000e+00
0.00000000e+00
1.02572006e+00
1.89315242e+00
2.50083253e+00
2.80851186e+00
2.80851186e+00
2.50083253e+00
1.89315242e+00
1.02572006e+00
0.00000000e+00
0.00000000e+00
4.04178302e-01
7.48577805e-01
9.92367966e-01
1.11684967e+00
1.11684967e+00
9.92367966e-01
7.48577805e-01
4.04178302e-01
0.00000000e+00
0.00000000e+00
0.00000000e+00
0.00000000e+00
0.00000000e+00
0.00000000e+00
0.00000000e+00
0.00000000e+00
0.00000000e+00
0.00000000e+00
0.00000000e+00
