# vtk DataFile Version 2.0
Difusion de calor 2D - Tiempo: 0.720000 s
ASCII
DATASET STRUCTURED_POINTS
DIMENSIONS 10 10 1
ORIGIN 0.0 0.0 0.0
SPACING 0.100000 0.100000 1.0
POINT_DATA 100
SCALARS temperatura float 1
LOOKUP_TABLE default
1.00000000e+02
1.00000000e+02
1.00000000e+02
1.00000000e+02
1.00000000e+02
1.00000000e+02
1.00000000e+02
1.00000000e+02
1.00000000e+02
1.00000000e+02
0.00000000e+00
4.77117568e+01
6.51899764e+01
7.21535529e+01
7.47060312e+01
7.47060312e+01
7.21535529e+01
6.51899764e+01
4.77117568e+01
0.00000000e+00
0.00000000e+00
2.59141427e+01
4.13774602e+01
4.93682893e+01
5.27034369e+01
5.27034369e+01
4.93682893e+01
4.13774602e+01
2.59141427e+01
0.00000000e+00
0.00000000e+00
1.50286233e+01
2.59037772e+01
3.24050765e+01
3.53617022e+01
3.53617022e+01
3.24050765e+01
2.59037772e+01
1.50286233e+01
0.00000000e+00
0.00000000e+00
8.87392555e+00
1.58883186e+01
2.04464357e+01
2.26359351e+01
2.26359351e+01
2.04464357e+01
1.58883186e+01
8.87392555e+00
0.00000000e+00
0.00000000e+00
5.17580734e+00
9.45049595e+00
1.23661109e+01
1.38156124e+01
1.38156124e+01
1.23661109e+01
9.45049595e+00
5.17580734e+00
0.00000000e+00
0.00000000e+00
2.91496615e+00
5.37874692e+00
7.10763407e+00
7.98573928e+00
7.98573928e+00
7.10763407e+00
5.37874692e+00
2.91496615e+00
0.00000000e+00
0.00000000e+00
1.52844597e+00
2.83661497e+00
3.76988384e+00
4.25008606e+00
4.25008606e+00
3.76988384e+00
2.83661497e+00
1.52844597e+00
0.00000000e+00
0.00000000e+00
6.48031403e-01
1.20621995e+00
1.60794932e+00
1.81612225e+00
1.81612225e+00
1.60794932e+00
1.20621995e+00
6.48031403e-01
0.00000000e+00
0.00000000e+00
0.00000000e+00
0.00000000e+00
0.00000000e+00
0.00000000e+00
0.00000000e+00
0.00000000e+00
0.00000000e+00
0.00000000e+00
0.00000000e+00
