# vtk DataFile Version 2.0
Difusion de calor 2D - Tiempo: 1.380000 s
ASCII
DATASET STRUCTURED_POINTS
DIMENSIONS 10 10 1
ORIGIN 0.0 0.0 0.0
SPACING 0.100000 0.100000 1.0
POINT_DATA 100
SCALARS temperatura float 1
LOOKUP_TABLE default
1.00000000e+02
1.00000000e+02
1.00000000e+02
1.00000000e+02
1.00000000e+02
1.00000000e+02
1.00000000e+02
1.00000000e+02
1.00000000e+02
1.00000000e+02
0.00000000e+00
4.84606455e+01
6.65971653e+01
7.40490529e+01
7.68612169e+01
7.68612169e+01
7.40490529e+01
6.65971653e+01
4.84606455e+01
0.00000000e+00
0.00000000e+00
2.72867413e+01
4.39566279e+01
5.28424667e+01
5.66535868e+01
5.66535868e+01
5.28424667e+01
4.39566279e+01
2.72867413e+01
0.00000000e+00
0.00000000e+00
1.68069476e+01
2.92453309e+01
3.69062163e+01
4.04795242e+01
4.04795242e+01
3.69062163e+01
2.92453309e+01
1.68069476e+01
0.00000000e+00
0.00000000e+00
1.07989595e+01
1.95055621e+01
2.53189589e+01
2.81760399e+01
2.81760399e+01
2.53189589e+01
1.95055621e+01
1.07989595e+01
0.00000000e+00
0.00000000e+00
6.99955308e+00
1.28774301e+01
1.69823079e+01
1.90642910e+01
1.90642910e+01
1.69823079e+01
1.28774301e+01
6.99955308e+00
0.00000000e+00
0.00000000e+00
4.43679665e+00
8.23837705e+00
1.09596746e+01
1.23655773e+01
1.23655773e+01
1.09596746e+01
8.23837705e+00
4.43679665e+00
0.00000000e+00
0.00000000e+00
2.60933022e+00
4.86768359e+00
6.50583068e+00
7.36091557e+00
7.36091557e+00
6.50583068e+00
4.86768359e+00
2.60933022e+00
0.00000000e+00
0.00000000e+00
1.20649395e+00
2.25561908e+00
3.02154489e+00
3.42341378e+00
3.42341378e+00
3.02154489e+00
2.25561908e+00
1.20649395e+00
0.00000000e+00
0.00000000e+00
0.00000000e+00
0.00000000e+00
0.00000000e+00
0.00000000e+00
0.00000000e+00
0.00000000e+00
0.00000000e+00
0.00000000e+00
0.00000000e+00
