# vtk DataFile Version 2.0
Difusion de calor 2D - Tiempo: 1.800000 s
ASCII
DATASET STRUCTURED_POINTS
DIMENSIONS 10 10 1
ORIGIN 0.0 0.0 0.0
SPACING 0.100000 0.100000 1.0
POINT_DATA 100
SCALARS temperatura float 1
LOOKUP_TABLE default
1.00000000e+02
1.00000000e+02
1.00000000e+02
1.00000000e+02
1.00000000e+02
1.00000000e+02
1.00000000e+02
1.00000000e+02
1.00000000e+02
1.00000000e+02
0.00000000e+00
4.85684796e+01
6.67998270e+01
7.43220979e+01
7.71717121e+01
7.71717121e+01
7.43220979e+01
6.67998270e+01
4.85684796e+01
0.00000000e+00
0.00000000e+00
2.74887669e+01
4.43363114e+01
5.33540125e+01
5.72352950e+01
5.72352950e+01
5.33540125e+01
4.43363114e+01
2.74887669e+01
0.00000000e+00
0.00000000e+00
1.70778230e+01
2.97544100e+01
3.75920961e+01
4.12594776e+01
4.12594776e+01
3.75920961e+01
2.97544100e+01
1.70778230e+01
0.00000000e+00
0.00000000e+00
1.11051576e+01
2.00810260e+01
2.60942787e+01
2.90577006e+01
2.90577006e+01
2.60942787e+01
2.00810260e+01
1.11051576e+01
0.00000000e+00
0.00000000e+00
7.30380498e+00
1.34492363e+01
1.77526997e+01
1.99403478e+01
1.99403478e+01
1.77526997e+01
1.34492363e+01
7.30380498e+00
0.00000000e+00
0.00000000e+00
4.70274408e+00
8.73819439e+00
1.16330762e+01
1.31313410e+01
1.31313410e+01
1.16330762e+01
8.73819439e+00
4.70274408e+00
0.00000000e+00
0.00000000e+00
2.80575173e+00
5.23683504e+00
7.00318671e+00
7.92648771e+00
7.92648771e+00
7.00318671e+00
5.23683504e+00
2.80575173e+00
0.00000000e+00
0.00000000e+00
1.31067026e+00
2.45140638e+00
3.28532821e+00
3.72337695e+00
3.72337695e+00
3.28532821e+00
2.45140638e+00
1.31067026e+00
0.00000000e+00
0.00000000e+00
0.00000000e+00
0.00000000e+00
0.00000000e+00
0.00000000e+00
0.00000000e+00
0.00000000e+00
0.00000000e+00
0.00000000e+00
0.00000000e+00
