# vtk DataFile Version 2.0
Difusion de calor 2D - Tiempo: 0.740000 s
ASCII
DATASET STRUCTURED_POINTS
DIMENSIONS 10 10 1
ORIGIN 0.0 0.0 0.0
SPACING 0.100000 0.100000 1.0
POINT_DATA 100
SCALARS temperatura float 1
LOOKUP_TABLE default
1.00000000e+02
1.00000000e+02
1.00000000e+02
1.00000000e+02
1.00000000e+02
1.00000000e+02
1.00000000e+02
1.00000000e+02
1.00000000e+02
1.00000000e+02
0.00000000e+00
4.77615355e+01
6.52834747e+01
7.22794382e+01
7.48491198e+01
7.48491198e+01
7.22794382e+01
6.52834747e+01
4.77615355e+01
0.00000000e+00
0.00000000e+00
2.60035833e+01
4.15454541e+01
4.95944749e+01
5.29605328e+01
5.29605328e+01
4.95944749e+01
4.15454541e+01
2.60035833e+01
0.00000000e+00
0.00000000e+00
1.51408334e+01
2.61145387e+01
3.26888441e+01
3.56842492e+01
3.56842492e+01
3.26888441e+01
2.61145387e+01
1.51408334e+01
0.00000000e+00
0.00000000e+00
8.99032350e+00
1.61069461e+01
2.07407938e+01
2.29705200e+01
2.29705200e+01
2.07407938e+01
1.61069461e+01
8.99032350e+00
0.00000000e+00
0.00000000e+00
5.28071752e+00
9.64754623e+00
1.26314177e+01
1.41171760e+01
1.41171760e+01
1.26314177e+01
9.64754623e+00
5.28071752e+00
0.00000000e+00
0.00000000e+00
2.99808130e+00
5.53486013e+00
7.31782362e+00
8.22465324e+00
8.22465324e+00
7.31782362e+00
5.53486013e+00
2.99808130e+00
0.00000000e+00
0.00000000e+00
1.58478884e+00
2.94244248e+00
3.91236915e+00
4.41204335e+00
4.41204335e+00
3.91236915e+00
2.94244248e+00
1.58478884e+00
0.00000000e+00
0.00000000e+00
6.76200320e-01
1.25912897e+00
1.67918560e+00
1.89709366e+00
1.89709366e+00
1.67918560e+00
1.25912897e+00
6.76200320e-01
0.00000000e+00
0.00000000e+00
0.00000000e+00
0.00000000e+00
0.00000000e+00
0.00000000e+00
0.00000000e+00
0.00000000e+00
0.00000000e+00
0.00000000e+00
0.00000000e+00
