# vtk DataFile Version 2.0
Difusion de calor 2D - Tiempo: 1.460000 s
ASCII
DATASET STRUCTURED_POINTS
DIMENSIONS 10 10 1
ORIGIN 0.0 0.0 0.0
SPACING 0.100000 0.100000 1.0
POINT_DATA 100
SCALARS temperatura float 1
LOOKUP_TABLE default
1.00000000e+02
1.00000000e+02
1.00000000e+02
1.00000000e+02
1.00000000e+02
1.00000000e+02
1.00000000e+02
1.00000000e+02
1.00000000e+02
1.00000000e+02
0.00000000e+00
4.84906054e+01
6.66534715e+01
7.41249139e+01
7.69474827e+01
7.69474827e+01
7.41249139e+01
6.66534715e+01
4.84906054e+01
0.00000000e+00
0.00000000e+00
2.73427865e+01
4.40619581e+01
5.29843775e+01
5.68149616e+01
5.68149616e+01
5.29843775e+01
4.40619581e+01
2.73427865e+01
0.00000000e+00
0.00000000e+00
1.68819182e+01
2.93862295e+01
3.70960481e+01
4.06953927e+01
4.06953927e+01
3.70960481e+01
2.93862295e+01
1.68819182e+01
0.00000000e+00
0.00000000e+00
1.08834621e+01
1.96643749e+01
2.55329265e+01
2.84193546e+01
2.84193546e+01
2.55329265e+01
1.96643749e+01
1.08834621e+01
0.00000000e+00
0.00000000e+00
7.08325751e+00
1.30347427e+01
1.71942543e+01
1.93053073e+01
1.93053073e+01
1.71942543e+01
1.30347427e+01
7.08325751e+00
0.00000000e+00
0.00000000e+00
4.50974612e+00
8.37547700e+00
1.11443886e+01
1.25756261e+01
1.25756261e+01
1.11443886e+01
8.37547700e+00
4.50974612e+00
0.00000000e+00
0.00000000e+00
2.66307691e+00
4.96869418e+00
6.64192166e+00
7.51567236e+00
7.51567236e+00
6.64192166e+00
4.96869418e+00
2.66307691e+00
0.00000000e+00
0.00000000e+00
1.23495370e+00
2.30910583e+00
3.09360728e+00
3.50536002e+00
3.50536002e+00
3.09360728e+00
2.30910583e+00
1.23495370e+00
0.00000000e+00
0.00000000e+00
0.00000000e+00
0.00000000e+00
0.00000000e+00
0.00000000e+00
0.00000000e+00
0.00000000e+00
0.00000000e+00
0.00000000e+00
0.00000000e+00
