# vtk DataFile Version 2.0
Difusion de calor 2D - Tiempo: 0.060000 s
ASCII
DATASET STRUCTURED_POINTS
DIMENSIONS 10 10 1
ORIGIN 0.0 0.0 0.0
SPACING 0.100000 0.100000 1.0
POINT_DATA 100
SCALARS temperatura float 1
LOOKUP_TABLE default
1.00000000e+02
1.00000000e+02
1.00000000e+02
1.00000000e+02
1.00000000e+02
1.00000000e+02
1.00000000e+02
1.00000000e+02
1.00000000e+02
1.00000000e+02
0.00000000e+00
2.98128626e+01
3.54905835e+01
3.63625847e+01
3.64727259e+01
3.64727259e+01
3.63625847e+01
3.54905835e+01
2.98128626e+01
0.00000000e+00
0.00000000e+00
6.64515873e+00
8.48467786e+00
8.82327628e+00
8.87045318e+00
8.87045318e+00
8.82327628e+00
8.48467786e+00
6.64515873e+00
0.00000000e+00
0.00000000e+00
1.12576888e+00
1.49071719e+00
1.56471565e+00
1.57584957e+00
1.57584957e+00
1.56471565e+00
1.49071719e+00
1.12576888e+00
0.00000000e+00
0.00000000e+00
1.53171850e-01
2.07053655e-01
2.18789487e-01
2.20559482e-01
2.20559482e-01
2.18789487e-01
2.07053655e-01
1.53171850e-01
0.00000000e+00
0.00000000e+00
1.72885077e-02
2.37257843e-02
2.51305064e-02
2.53473739e-02
2.53473739e-02
2.51305064e-02
2.37257843e-02
1.72885077e-02
0.00000000e+00
0.00000000e+00
1.65815476e-03
2.27626222e-03
2.41389994e-03
2.43367055e-03
2.43367055e-03
2.41389994e-03
2.27626222e-03
1.65815476e-03
0.00000000e+00
0.00000000e+00
1.32958074e-04
1.83231230e-04
1.93654489e-04
1.95286578e-04
1.95286578e-04
1.93654489e-04
1.83231230e-04
1.32958074e-04
0.00000000e+00
0.00000000e+00
9.12841481e-06
1.23813037e-05
1.31073778e-05
1.31740444e-05
1.31740444e-05
1.31073778e-05
1.23813037e-05
9.12841481e-06
0.00000000e+00
0.00000000e+00
0.00000000e+00
0.00000000e+00
0.00000000e+00
0.00000000e+00
0.00000000e+00
0.00000000e+00
0.00000000e+00
0.00000000e+00
0.00000000e+00
