# vtk DataFile Version 2.0
Difusion de calor 2D - Tiempo: 0.960000 s
ASCII
DATASET STRUCTURED_POINTS
DIMENSIONS 10 10 1
ORIGIN 0.0 0.0 0.0
SPACING 0.100000 0.100000 1.0
POINT_DATA 100
SCALARS temperatura float 1
LOOKUP_TABLE default
1.00000000e+02
1.00000000e+02
1.00000000e+02
1.00000000e+02
1.00000000e+02
1.00000000e+02
1.00000000e+02
1.00000000e+02
1.00000000e+02
1.00000000e+02
0.00000000e+00
4.81468649e+01
6.60074665e+01
7.32545779e+01
7.59577911e+01
7.59577911e+01
7.32545779e+01
6.60074665e+01
4.81468649e+01
0.00000000e+00
0.00000000e+00
2.67046692e+01
4.28627193e+01
5.13686921e+01
5.49777053e+01
5.49777053e+01
5.13686921e+01
4.28627193e+01
2.67046692e+01
0.00000000e+00
0.00000000e+00
1.60384357e+01
2.78010393e+01
3.49603860e+01
3.82668510e+01
3.82668510e+01
3.49603860e+01
2.78010393e+01
1.60384357e+01
0.00000000e+00
0.00000000e+00
9.94683756e+00
1.79041388e+01
2.31614315e+01
2.57226380e+01
2.57226380e+01
2.31614315e+01
1.79041388e+01
9.94683756e+00
0.00000000e+00
0.00000000e+00
6.17048351e+00
1.13193295e+01
1.48831468e+01
1.66772591e+01
1.66772591e+01
1.48831468e+01
1.13193295e+01
6.17048351e+00
0.00000000e+00
0.00000000e+00
3.72665570e+00
6.90378306e+00
9.16163375e+00
1.03209598e+01
1.03209598e+01
9.16163375e+00
6.90378306e+00
3.72665570e+00
0.00000000e+00
0.00000000e+00
2.09363559e+00
3.89851954e+00
5.20011753e+00
5.87614160e+00
5.87614160e+00
5.20011753e+00
3.89851954e+00
2.09363559e+00
0.00000000e+00
0.00000000e+00
9.36038511e-01
1.74734209e+00
2.33676500e+00
2.64472556e+00
2.64472556e+00
2.33676500e+00
1.74734209e+00
9.36038511e-01
0.00000000e+00
0.00000000e+00
0.00000000e+00
0.00000000e+00
0.00000000e+00
0.00000000e+00
0.00000000e+00
0.00000000e+00
0.00000000e+00
0.00000000e+00
0.00000000e+00
