# vtk DataFile Version 2.0
Difusion de calor 2D - Tiempo: 0.700000 s
ASCII
DATASET STRUCTURED_POINTS
DIMENSIONS 10 10 1
ORIGIN 0.0 0.0 0.0
SPACING 0.100000 0.100000 1.0
POINT_DATA 100
SCALARS temperatura float 1
LOOKUP_TABLE default
1.00000000e+02
1.00000000e+02
1.00000000e+02
1.00000000e+02
1.00000000e+02
1.00000000e+02
1.00000000e+02
1.00000000e+02
1.00000000e+02
1.00000000e+02
0.00000000e+00
4.76586061e+01
6.50901562e+01
7.20191732e+01
7.45533002e+01
7.45533002e+01
7.20191732e+01
6.50901562e+01
4.76586061e+01
0.00000000e+00
0.00000000e+00
2.58189271e+01
4.11986392e+01
4.91275574e+01
5.24298299e+01
5.24298299e+01
4.91275574e+01
4.11986392e+01
2.58189271e+01
0.00000000e+00
0.00000000e+00
1.49097410e+01
2.56805089e+01
3.21045088e+01
3.50200880e+01
3.50200880e+01
3.21045088e+01
2.56805089e+01
1.49097410e+01
0.00000000e+00
0.00000000e+00
8.75139329e+00
1.56581953e+01
2.01366396e+01
2.22838321e+01
2.22838321e+01
2.01366396e+01
1.56581953e+01
8.75139329e+00
0.00000000e+00
0.00000000e+00
5.06619919e+00
9.24464490e+00
1.20889905e+01
1.35006475e+01
1.35006475e+01
1.20889905e+01
9.24464490e+00
5.06619919e+00
0.00000000e+00
0.00000000e+00
2.82881878e+00
5.21695669e+00
6.88982913e+00
7.73819011e+00
7.73819011e+00
6.88982913e+00
5.21695669e+00
2.82881878e+00
0.00000000e+00
0.00000000e+00
1.47047223e+00
2.72773661e+00
3.62330978e+00
4.08349531e+00
4.08349531e+00
3.62330978e+00
2.72773661e+00
1.47047223e+00
0.00000000e+00
0.00000000e+00
6.19198581e-01
1.15207007e+00
1.53505175e+00
1.73326952e+00
1.73326952e+00
1.53505175e+00
1.15207007e+00
6.19198581e-01
0.00000000e+00
0.00000000e+00
0.00000000e+00
0.00000000e+00
0.00000000e+00
0.00000000e+00
0.00000000e+00
0.00000000e+00
0.00000000e+00
0.00000000e+00
0.00000000e+00
