# vtk DataFile Version 2.0
Difusion de calor 2D - Tiempo: 0.660000 s
ASCII
DATASET STRUCTURED_POINTS
DIMENSIONS 10 10 1
ORIGIN 0.0 0.0 0.0
SPACING 0.100000 0.100000 1.0
POINT_DATA 100
SCALARS temperatura float 1
LOOKUP_TABLE default
1.00000000e+02
1.00000000e+02
1.00000000e+02
1.00000000e+02
1.00000000e+02
1.00000000e+02
1.00000000e+02
1.00000000e+02
1.00000000e+02
1.00000000e+02
0.00000000e+00
4.75409816e+01
6.48692983e+01
7.17219245e+01
7.42155132e+01
7.42155132e+01
7.17219245e+01
6.48692983e+01
4.75409816e+01
0.00000000e+00
0.00000000e+00
2.56092454e+01
4.08049299e+01
4.85976708e+01
5.18276781e+01
5.18276781e+01
4.85976708e+01
4.08049299e+01
2.56092454e+01
0.00000000e+00
0.00000000e+00
1.46500207e+01
2.51928441e+01
3.14481690e+01
3.42742373e+01
3.42742373e+01
3.14481690e+01
2.51928441e+01
1.46500207e+01
0.00000000e+00
0.00000000e+00
8.48652883e+00
1.51608715e+01
1.94672995e+01
2.15232080e+01
2.15232080e+01
1.94672995e+01
1.51608715e+01
8.48652883e+00
0.00000000e+00
0.00000000e+00
4.83223344e+00
8.80533796e+00
1.14977340e+01
1.28287557e+01
1.28287557e+01
1.14977340e+01
8.80533796e+00
4.83223344e+00
0.00000000e+00
0.00000000e+00
2.64737083e+00
4.87625986e+00
6.43129017e+00
7.21711556e+00
7.21711556e+00
6.43129017e+00
4.87625986e+00
2.64737083e+00
0.00000000e+00
0.00000000e+00
1.34985812e+00
2.50126468e+00
3.31850431e+00
3.73712029e+00
3.73712029e+00
3.31850431e+00
2.50126468e+00
1.34985812e+00
0.00000000e+00
0.00000000e+00
5.59742981e-01
1.04043281e+00
1.38480062e+00
1.56252701e+00
1.56252701e+00
1.38480062e+00
1.04043281e+00
5.59742981e-01
0.00000000e+00
0.00000000e+00
0.00000000e+00
0.00000000e+00
0.00000000e+00
0.00000000e+00
0.00000000e+00
0.00000000e+00
0.00000000e+00
0.00000000e+00
0.00000000e+00
