# vtk DataFile Version 2.0
Difusion de calor 2D - Tiempo: 0.780000 s
ASCII
DATASET STRUCTURED_POINTS
DIMENSIONS 10 10 1
ORIGIN 0.0 0.0 0.0
SPACING 0.100000 0.100000 1.0
POINT_DATA 100
SCALARS temperatura float 1
LOOKUP_TABLE default
1.00000000e+02
1.00000000e+02
1.00000000e+02
1.00000000e+02
1.00000000e+02
1.00000000e+02
1.00000000e+02
1.00000000e+02
1.00000000e+02
1.00000000e+02
0.00000000e+00
4.78520074e+01
6.54534286e+01
7.25082975e+01
7.51092808e+01
7.51092808e+01
7.25082975e+01
6.54534286e+01
4.78520074e+01
0.00000000e+00
0.00000000e+00
2.61667992e+01
4.18520597e+01
5.00073490e+01
5.34298767e+01
5.34298767e+01
5.00073490e+01
4.18520597e+01
2.61667992e+01
0.00000000e+00
0.00000000e+00
1.53469465e+01
2.65017279e+01
3.32102317e+01
3.62769484e+01
3.62769484e+01
3.32102317e+01
2.65017279e+01
1.53469465e+01
0.00000000e+00
0.00000000e+00
9.20599703e+00
1.65120948e+01
2.12863659e+01
2.35907114e+01
2.35907114e+01
2.12863659e+01
1.65120948e+01
9.20599703e+00
0.00000000e+00
0.00000000e+00
5.47710337e+00
1.00164626e+01
1.31281995e+01
1.46819040e+01
1.46819040e+01
1.31281995e+01
1.00164626e+01
5.47710337e+00
0.00000000e+00
0.00000000e+00
3.15534806e+00
5.83029023e+00
7.71564911e+00
8.67689049e+00
8.67689049e+00
7.71564911e+00
5.83029023e+00
3.15534806e+00
0.00000000e+00
0.00000000e+00
1.69244439e+00
3.14467654e+00
4.18469712e+00
4.72161847e+00
4.72161847e+00
4.18469712e+00
3.14467654e+00
1.69244439e+00
0.00000000e+00
0.00000000e+00
7.30399482e-01
1.36094367e+00
1.81628909e+00
2.05294924e+00
2.05294924e+00
1.81628909e+00
1.36094367e+00
7.30399482e-01
0.00000000e+00
0.00000000e+00
0.00000000e+00
0.00000000e+00
0.00000000e+00
0.00000000e+00
0.00000000e+00
0.00000000e+00
0.00000000e+00
0.00000000e+00
0.00000000e+00
