# vtk DataFile Version 2.0
Difusion de calor 2D - Tiempo: 0.860000 s
ASCII
DATASET STRUCTURED_POINTS
DIMENSIONS 10 10 1
ORIGIN 0.0 0.0 0.0
SPACING 0.100000 0.100000 1.0
POINT_DATA 100
SCALARS temperatura float 1
LOOKUP_TABLE default
1.00000000e+02
1.00000000e+02
1.00000000e+02
1.00000000e+02
1.00000000e+02
1.00000000e+02
1.00000000e+02
1.00000000e+02
1.00000000e+02
1.00000000e+02
0.00000000e+00
4.80025282e+01
6.57362367e+01
7.28892041e+01
7.55423428e+01
7.55423428e+01
7.28892041e+01
6.57362367e+01
4.80025282e+01
0.00000000e+00
0.00000000e+00
2.64402404e+01
4.23658190e+01
5.06993174e+01
5.42165926e+01
5.42165926e+01
5.06993174e+01
4.23658190e+01
2.64402404e+01
0.00000000e+00
0.00000000e+00
1.56961476e+01
2.71578301e+01
3.40939182e+01
3.72816335e+01
3.72816335e+01
3.40939182e+01
2.71578301e+01
1.56961476e+01
0.00000000e+00
0.00000000e+00
9.57684696e+00
1.72088725e+01
2.22248373e+01
2.46576831e+01
2.46576831e+01
2.22248373e+01
1.72088725e+01
9.57684696e+00
0.00000000e+00
0.00000000e+00
5.82067197e+00
1.06619824e+01
1.39976335e+01
1.56703856e+01
1.56703856e+01
1.39976335e+01
1.06619824e+01
5.82067197e+00
0.00000000e+00
0.00000000e+00
3.43546436e+00
6.35659183e+00
8.42451142e+00
9.48281425e+00
9.48281425e+00
8.42451142e+00
6.35659183e+00
3.43546436e+00
0.00000000e+00
0.00000000e+00
1.88731465e+00
3.51081217e+00
4.67783611e+00
5.28228098e+00
5.28228098e+00
4.67783611e+00
3.51081217e+00
1.88731465e+00
0.00000000e+00
0.00000000e+00
8.29630593e-01
1.54738595e+00
2.06740363e+00
2.33844792e+00
2.33844792e+00
2.06740363e+00
1.54738595e+00
8.29630593e-01
0.00000000e+00
0.00000000e+00
0.00000000e+00
0.00000000e+00
0.00000000e+00
0.00000000e+00
0.00000000e+00
0.00000000e+00
0.00000000e+00
0.00000000e+00
0.00000000e+00
